
     Program PWSCF v.7.3.1 starts on 28Feb2025 at 18:48:19 

     This program is part of the open-source Quantum ESPRESSO suite
     for quantum simulation of materials; please cite
         "P. Giannozzi et al., J. Phys.:Condens. Matter 21 395502 (2009);
         "P. Giannozzi et al., J. Phys.:Condens. Matter 29 465901 (2017);
         "P. Giannozzi et al., J. Chem. Phys. 152 154105 (2020);
          URL http://www.quantum-espresso.org", 
     in publications or presentations arising from this work. More details at
     http://www.quantum-espresso.org/quote

     Parallel version (MPI & OpenMP), running on      20 processor cores
     Number of MPI processes:                 2
     Threads/MPI process:                    10

     MPI processes distributed on     1 nodes
     447887 MiB available memory on the printing compute node when the environment starts
 
     Reading input from pw.in

     Current dimensions of program PWSCF are:
     Max number of different atomic species (ntypx) = 10
     Max number of k-points (npk) =  40000
     Max angular momentum in pseudopotentials (lmaxx) =  4
 
     K-points division:     npool     =       2
     Subspace diagonalization in iterative solution of the eigenvalue problem:
     a serial algorithm will be used

 
     G-vector sticks info
     --------------------
     sticks:   dense  smooth     PW     G-vecs:    dense   smooth      PW
     Sum       11837    5915   1537              2158381   763307  100747
 
     Using Slab Decomposition
 

     Title: 
      DEISA pw benchmark                                                        


     bravais-lattice index     =            8
     lattice parameter (alat)  =      38.7583  a.u.
     unit-cell volume          =   45191.4962 (a.u.)^3
     number of atoms/cell      =          112
     number of atomic types    =            1
     number of electrons       =      1232.00
     number of Kohn-Sham states=          800
     kinetic-energy cutoff     =      25.0000  Ry
     charge density cutoff     =     200.0000  Ry
     scf convergence threshold =      1.0E-06
     mixing beta               =       0.7000
     number of iterations used =            8  plain     mixing
     Exchange-correlation=  SLA  PW   PBE  PBE
                           (   1   4   3   4   0   0   0)

     GPU acceleration is ACTIVE.  2 visible GPUs per MPI rank
     GPU-aware MPI enabled


     celldm(1)=  38.758300  celldm(2)=   0.494393  celldm(3)=   1.569966
     celldm(4)=   0.000000  celldm(5)=   0.000000  celldm(6)=   0.000000

     crystal axes: (cart. coord. in units of alat)
               a(1) = (   1.000000   0.000000   0.000000 )  
               a(2) = (   0.000000   0.494393   0.000000 )  
               a(3) = (   0.000000   0.000000   1.569966 )  

     reciprocal axes: (cart. coord. in units 2 pi/alat)
               b(1) = (  1.000000  0.000000  0.000000 )  
               b(2) = (  0.000000  2.022682  0.000000 )  
               b(3) = (  0.000000  0.000000  0.636956 )  


     PseudoPot. # 1 for Au read from file:
     ./Au.pbe-nd-van.UPF
     MD5 check sum: deb5c07af10777505a79e28f5b4b4115
     Pseudo is Ultrasoft + core correction, Zval = 11.0
     Generated by new atomic code, or converted to UPF format
     Using radial grid of  985 points,  3 beta functions with: 
                l(1) =   1
                l(2) =   2
                l(3) =   2
     Q(r) pseudized with  8 coefficients,  rinner =    1.100   1.100   1.100
                                                       1.100   1.100

     atomic species   valence    mass     pseudopotential
     AU               11.00   196.96000     Au( 1.00)

     No symmetry found



   Cartesian axes

     site n.     atom                  positions (alat units)
         1        AU     tau(   1) = (   1.4278394   1.9784974   0.3497317  )
         2        AU     tau(   2) = (   1.4278394   1.7313986   0.3497317  )
         3        AU     tau(   3) = (   1.5706478   1.9784974   0.3497317  )
         4        AU     tau(   4) = (   1.5706478   1.7313986   0.3497317  )
         5        AU     tau(   5) = (   1.7134072   1.9784974   0.3497317  )
         6        AU     tau(   6) = (   1.7134072   1.7313986   0.3497317  )
         7        AU     tau(   7) = (   1.8562156   1.9784974   0.3497317  )
         8        AU     tau(   8) = (   1.8562156   1.7313986   0.3497317  )
         9        AU     tau(   9) = (   1.9989753   1.9784974   0.3497317  )
        10        AU     tau(  10) = (   1.9989753   1.7313986   0.3497317  )
        11        AU     tau(  11) = (   2.1417836   1.9784974   0.3497317  )
        12        AU     tau(  12) = (   2.1417836   1.7313986   0.3497317  )
        13        AU     tau(  13) = (   2.2845431   1.9784974   0.3497317  )
        14        AU     tau(  14) = (   2.2845431   1.7313986   0.3497317  )
        15        AU     tau(  15) = (   1.4278394   2.0609450   0.2331545  )
        16        AU     tau(  16) = (   1.4278394   1.8138461   0.2331545  )
        17        AU     tau(  17) = (   1.5706478   2.0609450   0.2331545  )
        18        AU     tau(  18) = (   1.5706478   1.8138461   0.2331545  )
        19        AU     tau(  19) = (   1.7134072   2.0609450   0.2331545  )
        20        AU     tau(  20) = (   1.7134072   1.8138461   0.2331545  )
        21        AU     tau(  21) = (   1.8562156   2.0609450   0.2331545  )
        22        AU     tau(  22) = (   1.8562156   1.8138461   0.2331545  )
        23        AU     tau(  23) = (   1.9989753   2.0609450   0.2331545  )
        24        AU     tau(  24) = (   1.9989753   1.8138461   0.2331545  )
        25        AU     tau(  25) = (   2.1417836   2.0609450   0.2331545  )
        26        AU     tau(  26) = (   2.1417836   1.8138461   0.2331545  )
        27        AU     tau(  27) = (   2.2845431   2.0609450   0.2331545  )
        28        AU     tau(  28) = (   2.2845431   1.8138461   0.2331545  )
        29        AU     tau(  29) = (   1.4992193   2.1021445   0.3497317  )
        30        AU     tau(  30) = (   1.4992193   1.8550455   0.3497317  )
        31        AU     tau(  31) = (   1.6420276   2.1021445   0.3497317  )
        32        AU     tau(  32) = (   1.6420276   1.8550455   0.3497317  )
        33        AU     tau(  33) = (   1.7847871   2.1021445   0.3497317  )
        34        AU     tau(  34) = (   1.7847871   1.8550455   0.3497317  )
        35        AU     tau(  35) = (   1.9275954   2.1021445   0.3497317  )
        36        AU     tau(  36) = (   1.9275954   1.8550455   0.3497317  )
        37        AU     tau(  37) = (   2.0704038   2.1021445   0.3497317  )
        38        AU     tau(  38) = (   2.0704038   1.8550455   0.3497317  )
        39        AU     tau(  39) = (   2.2131632   2.1021445   0.3497317  )
        40        AU     tau(  40) = (   2.2131632   1.8550455   0.3497317  )
        41        AU     tau(  41) = (   2.3559716   2.1021445   0.3497317  )
        42        AU     tau(  42) = (   2.3559716   1.8550455   0.3497317  )
        43        AU     tau(  43) = (   1.4992193   1.6901992   0.2331545  )
        44        AU     tau(  44) = (   1.4992193   1.9374930   0.2331545  )
        45        AU     tau(  45) = (   1.6420276   1.6901992   0.2331545  )
        46        AU     tau(  46) = (   1.6420276   1.9374930   0.2331545  )
        47        AU     tau(  47) = (   1.7847871   1.6901992   0.2331545  )
        48        AU     tau(  48) = (   1.7847871   1.9374930   0.2331545  )
        49        AU     tau(  49) = (   1.9275954   1.6901992   0.2331545  )
        50        AU     tau(  50) = (   1.9275954   1.9374930   0.2331545  )
        51        AU     tau(  51) = (   2.0704038   1.6901992   0.2331545  )
        52        AU     tau(  52) = (   2.0704038   1.9374930   0.2331545  )
        53        AU     tau(  53) = (   2.2131632   1.6901992   0.2331545  )
        54        AU     tau(  54) = (   2.2131632   1.9374930   0.2331545  )
        55        AU     tau(  55) = (   2.3559716   1.6901992   0.2331545  )
        56        AU     tau(  56) = (   2.3559716   1.9374930   0.2331545  )
        57        AU     tau(  57) = (   1.4278394   1.9784974   0.0000000  )
        58        AU     tau(  58) = (   1.4278394   1.7313986   0.0000000  )
        59        AU     tau(  59) = (   1.5706478   1.9784974   0.0000000  )
        60        AU     tau(  60) = (   1.5706478   1.7313986   0.0000000  )
        61        AU     tau(  61) = (   1.7134072   1.9784974   0.0000000  )
        62        AU     tau(  62) = (   1.7134072   1.7313986   0.0000000  )
        63        AU     tau(  63) = (   1.8562156   1.9784974   0.0000000  )
        64        AU     tau(  64) = (   1.8562156   1.7313986   0.0000000  )
        65        AU     tau(  65) = (   1.9989753   1.9784974   0.0000000  )
        66        AU     tau(  66) = (   1.9989753   1.7313986   0.0000000  )
        67        AU     tau(  67) = (   2.1417836   1.9784974   0.0000000  )
        68        AU     tau(  68) = (   2.1417836   1.7313986   0.0000000  )
        69        AU     tau(  69) = (   2.2845431   1.9784974   0.0000000  )
        70        AU     tau(  70) = (   2.2845431   1.7313986   0.0000000  )
        71        AU     tau(  71) = (   1.4992193   2.0196968   0.1165772  )
        72        AU     tau(  72) = (   1.4992193   1.7725979   0.1165772  )
        73        AU     tau(  73) = (   1.6420276   2.0196968   0.1165772  )
        74        AU     tau(  74) = (   1.6420276   1.7725979   0.1165772  )
        75        AU     tau(  75) = (   1.7847871   2.0196968   0.1165772  )
        76        AU     tau(  76) = (   1.7847871   1.7725979   0.1165772  )
        77        AU     tau(  77) = (   1.9275954   2.0196968   0.1165772  )
        78        AU     tau(  78) = (   1.9275954   1.7725979   0.1165772  )
        79        AU     tau(  79) = (   2.0704038   2.0196968   0.1165772  )
        80        AU     tau(  80) = (   2.0704038   1.7725979   0.1165772  )
        81        AU     tau(  81) = (   2.2131632   2.0196968   0.1165772  )
        82        AU     tau(  82) = (   2.2131632   1.7725979   0.1165772  )
        83        AU     tau(  83) = (   2.3559716   2.0196968   0.1165772  )
        84        AU     tau(  84) = (   2.3559716   1.7725979   0.1165772  )
        85        AU     tau(  85) = (   1.4278394   2.1433437   0.1165772  )
        86        AU     tau(  86) = (   1.4278394   1.8962937   0.1165772  )
        87        AU     tau(  87) = (   1.5706478   2.1433437   0.1165772  )
        88        AU     tau(  88) = (   1.5706478   1.8962937   0.1165772  )
        89        AU     tau(  89) = (   1.7134072   2.1433437   0.1165772  )
        90        AU     tau(  90) = (   1.7134072   1.8962937   0.1165772  )
        91        AU     tau(  91) = (   1.8562156   2.1433437   0.1165772  )
        92        AU     tau(  92) = (   1.8562156   1.8962937   0.1165772  )
        93        AU     tau(  93) = (   1.9989753   2.1433437   0.1165772  )
        94        AU     tau(  94) = (   1.9989753   1.8962937   0.1165772  )
        95        AU     tau(  95) = (   2.1417836   2.1433437   0.1165772  )
        96        AU     tau(  96) = (   2.1417836   1.8962937   0.1165772  )
        97        AU     tau(  97) = (   2.2845431   2.1433437   0.1165772  )
        98        AU     tau(  98) = (   2.2845431   1.8962937   0.1165772  )
        99        AU     tau(  99) = (   1.4992193   2.1021445   0.0000000  )
       100        AU     tau( 100) = (   1.4992193   1.8550455   0.0000000  )
       101        AU     tau( 101) = (   1.6420276   2.1021445   0.0000000  )
       102        AU     tau( 102) = (   1.6420276   1.8550455   0.0000000  )
       103        AU     tau( 103) = (   1.7847871   2.1021445   0.0000000  )
       104        AU     tau( 104) = (   1.7847871   1.8550455   0.0000000  )
       105        AU     tau( 105) = (   1.9275954   2.1021445   0.0000000  )
       106        AU     tau( 106) = (   1.9275954   1.8550455   0.0000000  )
       107        AU     tau( 107) = (   2.0704038   2.1021445   0.0000000  )
       108        AU     tau( 108) = (   2.0704038   1.8550455   0.0000000  )
       109        AU     tau( 109) = (   2.2131632   2.1021445   0.0000000  )
       110        AU     tau( 110) = (   2.2131632   1.8550455   0.0000000  )
       111        AU     tau( 111) = (   2.3559716   2.1021445   0.0000000  )
       112        AU     tau( 112) = (   2.3559716   1.8550455   0.0000000  )

     number of k points=     2  Marzari-Vanderbilt smearing, width (Ry)=  0.0500
                       cart. coord. in units 2pi/alat
        k(    1) = (   0.2500000   0.5056706   0.0000000), wk =   1.0000000
        k(    2) = (  -0.2500000   0.5056706   0.0000000), wk =   1.0000000

     Dense  grid:  2158381 G-vectors     FFT dimensions: ( 180,  90, 288)

     Smooth grid:   763307 G-vectors     FFT dimensions: ( 125,  64, 200)

     Estimated max dynamical RAM per process >      11.48 GB

     Estimated total dynamical RAM >      22.44 GB

     Initial potential from superposition of free atoms

     starting charge    1230.6995, renormalised to    1232.0000

     negative rho (up, down):  3.043E+00 0.000E+00
     Starting wfcs are 1008 randomized atomic wfcs

     total cpu time spent up to now is       24.4 secs

     Self-consistent Calculation

     iteration #  1     ecut=    25.00 Ry     beta= 0.70
     Davidson diagonalization with overlap
     ethr =  1.00E-02,  avg # of iterations =  5.0

     Threshold (ethr) on eigenvalues was too large:
     Diagonalizing with lowered threshold

     Davidson diagonalization with overlap
     ethr =  4.37E-04,  avg # of iterations = 19.0

     negative rho (up, down):  2.992E+00 0.000E+00

     total cpu time spent up to now is       36.0 secs

     total energy              =  -11423.49099388 Ry
     estimated scf accuracy    <       6.31492520 Ry

     iteration #  2     ecut=    25.00 Ry     beta= 0.70
     Davidson diagonalization with overlap
     ethr =  5.13E-04,  avg # of iterations = 16.0

     negative rho (up, down):  2.993E+00 0.000E+00

     total cpu time spent up to now is       45.9 secs

     total energy              =  -11408.38696525 Ry
     estimated scf accuracy    <     196.10818684 Ry

     iteration #  3     ecut=    25.00 Ry     beta= 0.70
     Davidson diagonalization with overlap
     ethr =  5.13E-04,  avg # of iterations = 10.5

     negative rho (up, down):  3.038E+00 0.000E+00

     total cpu time spent up to now is       54.5 secs

     total energy              =  -11426.41096652 Ry
     estimated scf accuracy    <       5.03469997 Ry

     iteration #  4     ecut=    25.00 Ry     beta= 0.70
     Davidson diagonalization with overlap
     ethr =  4.09E-04,  avg # of iterations =  2.0

     negative rho (up, down):  3.045E+00 0.000E+00

     total cpu time spent up to now is       59.7 secs

     total energy              =  -11426.62285381 Ry
     estimated scf accuracy    <       4.27484796 Ry

     iteration #  5     ecut=    25.00 Ry     beta= 0.70
     Davidson diagonalization with overlap
     ethr =  3.47E-04,  avg # of iterations =  2.0

     negative rho (up, down):  3.061E+00 0.000E+00

     total cpu time spent up to now is       64.8 secs

     total energy              =  -11426.86824523 Ry
     estimated scf accuracy    <       4.86161422 Ry

     iteration #  6     ecut=    25.00 Ry     beta= 0.70
     Davidson diagonalization with overlap
     ethr =  3.47E-04,  avg # of iterations =  1.0

     negative rho (up, down):  3.070E+00 0.000E+00

     total cpu time spent up to now is       69.5 secs

     total energy              =  -11427.08083243 Ry
     estimated scf accuracy    <       0.09014706 Ry

     iteration #  7     ecut=    25.00 Ry     beta= 0.70
     Davidson diagonalization with overlap
     c_bands:  1 eigenvalues not converged
     ethr =  7.32E-06,  avg # of iterations = 20.0

     negative rho (up, down):  3.079E+00 0.000E+00

     total cpu time spent up to now is       77.6 secs

     total energy              =  -11427.07403003 Ry
     estimated scf accuracy    <       0.20076665 Ry

     iteration #  8     ecut=    25.00 Ry     beta= 0.70
     Davidson diagonalization with overlap
     ethr =  7.32E-06,  avg # of iterations = 13.5

     negative rho (up, down):  3.081E+00 0.000E+00

     total cpu time spent up to now is       83.6 secs

     total energy              =  -11427.09304248 Ry
     estimated scf accuracy    <       0.00538978 Ry

     iteration #  9     ecut=    25.00 Ry     beta= 0.70
     Davidson diagonalization with overlap
     ethr =  4.37E-07,  avg # of iterations = 11.0

     negative rho (up, down):  3.082E+00 0.000E+00

     total cpu time spent up to now is       89.9 secs

     total energy              =  -11427.09301057 Ry
     estimated scf accuracy    <       0.01015877 Ry

     iteration # 10     ecut=    25.00 Ry     beta= 0.70
     Davidson diagonalization with overlap
     ethr =  4.37E-07,  avg # of iterations =  2.5

     negative rho (up, down):  3.083E+00 0.000E+00

     total cpu time spent up to now is       95.1 secs

     total energy              =  -11427.09276610 Ry
     estimated scf accuracy    <       0.02600449 Ry

     iteration # 11     ecut=    25.00 Ry     beta= 0.70
     Davidson diagonalization with overlap
     ethr =  4.37E-07,  avg # of iterations =  2.0

     negative rho (up, down):  3.083E+00 0.000E+00

     total cpu time spent up to now is      100.4 secs

     total energy              =  -11427.09374977 Ry
     estimated scf accuracy    <       0.00185286 Ry

     iteration # 12     ecut=    25.00 Ry     beta= 0.70
     Davidson diagonalization with overlap
     ethr =  1.50E-07,  avg # of iterations =  2.0

     negative rho (up, down):  3.083E+00 0.000E+00

     total cpu time spent up to now is      105.6 secs

     total energy              =  -11427.09377038 Ry
     estimated scf accuracy    <       0.00415264 Ry

     iteration # 13     ecut=    25.00 Ry     beta= 0.70
     Davidson diagonalization with overlap
     ethr =  1.50E-07,  avg # of iterations =  1.0

     negative rho (up, down):  3.084E+00 0.000E+00

     total cpu time spent up to now is      110.4 secs

     total energy              =  -11427.09385407 Ry
     estimated scf accuracy    <       0.00210025 Ry

     iteration # 14     ecut=    25.00 Ry     beta= 0.70
     Davidson diagonalization with overlap
     ethr =  1.50E-07,  avg # of iterations =  1.0

     negative rho (up, down):  3.084E+00 0.000E+00

     total cpu time spent up to now is      115.2 secs

     total energy              =  -11427.09396884 Ry
     estimated scf accuracy    <       0.00037117 Ry

     iteration # 15     ecut=    25.00 Ry     beta= 0.70
     Davidson diagonalization with overlap
     ethr =  3.01E-08,  avg # of iterations =  2.0

     negative rho (up, down):  3.084E+00 0.000E+00

     total cpu time spent up to now is      120.4 secs

     total energy              =  -11427.09396999 Ry
     estimated scf accuracy    <       0.00095755 Ry

     iteration # 16     ecut=    25.00 Ry     beta= 0.70
     Davidson diagonalization with overlap
     ethr =  3.01E-08,  avg # of iterations =  1.0

     negative rho (up, down):  3.085E+00 0.000E+00

     total cpu time spent up to now is      125.3 secs

     total energy              =  -11427.09401693 Ry
     estimated scf accuracy    <       0.00005001 Ry

     iteration # 17     ecut=    25.00 Ry     beta= 0.70
     Davidson diagonalization with overlap
     ethr =  4.06E-09,  avg # of iterations =  2.0

     negative rho (up, down):  3.085E+00 0.000E+00

     total cpu time spent up to now is      130.5 secs

     total energy              =  -11427.09402001 Ry
     estimated scf accuracy    <       0.00001188 Ry

     iteration # 18     ecut=    25.00 Ry     beta= 0.70
     Davidson diagonalization with overlap
     ethr =  9.64E-10,  avg # of iterations =  2.0

     negative rho (up, down):  3.085E+00 0.000E+00

     total cpu time spent up to now is      135.8 secs

     total energy              =  -11427.09402150 Ry
     estimated scf accuracy    <       0.00000534 Ry

     iteration # 19     ecut=    25.00 Ry     beta= 0.70
     Davidson diagonalization with overlap
     ethr =  4.33E-10,  avg # of iterations =  2.0

     negative rho (up, down):  3.085E+00 0.000E+00

     total cpu time spent up to now is      141.0 secs

     total energy              =  -11427.09402188 Ry
     estimated scf accuracy    <       0.00000220 Ry

     iteration # 20     ecut=    25.00 Ry     beta= 0.70
     Davidson diagonalization with overlap
     ethr =  1.79E-10,  avg # of iterations =  1.5

     negative rho (up, down):  3.085E+00 0.000E+00

     total cpu time spent up to now is      146.2 secs

     total energy              =  -11427.09402184 Ry
     estimated scf accuracy    <       0.00000708 Ry

     iteration # 21     ecut=    25.00 Ry     beta= 0.70
     Davidson diagonalization with overlap
     ethr =  1.79E-10,  avg # of iterations =  1.0

     negative rho (up, down):  3.085E+00 0.000E+00

     total cpu time spent up to now is      151.0 secs

     total energy              =  -11427.09402208 Ry
     estimated scf accuracy    <       0.00000167 Ry

     iteration # 22     ecut=    25.00 Ry     beta= 0.70
     Davidson diagonalization with overlap
     ethr =  1.36E-10,  avg # of iterations =  1.0

     negative rho (up, down):  3.085E+00 0.000E+00

     total cpu time spent up to now is      155.9 secs

     total energy              =  -11427.09402212 Ry
     estimated scf accuracy    <       0.00000143 Ry

     iteration # 23     ecut=    25.00 Ry     beta= 0.70
     Davidson diagonalization with overlap
     ethr =  1.16E-10,  avg # of iterations =  1.0

     negative rho (up, down):  3.085E+00 0.000E+00

     total cpu time spent up to now is      160.5 secs

     End of self-consistent calculation

          k = 0.2500 0.5057 0.0000 ( 95386 PWs)   bands (ev):

    -8.0048  -7.7854  -7.3695  -7.1564  -6.9589  -6.8865  -6.8075  -6.6746
    -6.6109  -6.2900  -6.2194  -6.1890  -6.1050  -6.0374  -5.9302  -5.9279
    -5.8887  -5.8391  -5.8310  -5.8249  -5.7939  -5.7361  -5.7240  -5.6814
    -5.6675  -5.6495  -5.6454  -5.6402  -5.5498  -5.5384  -5.5309  -5.5227
    -5.5165  -5.5073  -5.4892  -5.4813  -5.4630  -5.4595  -5.4282  -5.3752
    -5.3691  -5.3537  -5.3515  -5.3171  -5.3099  -5.2939  -5.2912  -5.2337
    -5.2327  -5.2327  -5.2282  -5.2183  -5.1997  -5.1787  -5.1554  -5.1447
    -5.1299  -5.1244  -5.1157  -5.1141  -5.1105  -5.1092  -5.0881  -5.0675
    -5.0647  -5.0570  -5.0559  -5.0488  -5.0407  -5.0376  -5.0304  -4.9877
    -4.9821  -4.9669  -4.9638  -4.9481  -4.9342  -4.9324  -4.9288  -4.9268
    -4.9176  -4.9160  -4.9069  -4.9039  -4.8858  -4.8853  -4.8817  -4.8719
    -4.8718  -4.8621  -4.8596  -4.8487  -4.8280  -4.8270  -4.8247  -4.8221
    -4.7418  -4.7393  -4.7376  -4.7367  -4.7329  -4.7255  -4.7211  -4.7208
    -4.7202  -4.7120  -4.6995  -4.6847  -4.6742  -4.6165  -4.6001  -4.5970
    -4.5933  -4.5850  -4.5624  -4.5610  -4.5574  -4.5267  -4.4705  -4.4695
    -4.4509  -4.4137  -4.3979  -4.3951  -4.3935  -4.3931  -4.3916  -4.3853
    -4.3553  -4.3456  -4.3450  -4.3370  -4.3256  -4.3229  -4.3201  -4.3035
    -4.3021  -4.2738  -4.2644  -4.2573  -4.2476  -4.2451  -4.2293  -4.2105
    -4.1937  -4.1678  -4.1561  -4.1550  -4.1545  -4.1530  -4.1482  -4.1395
    -4.1373  -4.1044  -4.0972  -4.0834  -4.0774  -4.0762  -4.0698  -4.0544
    -4.0505  -4.0352  -4.0306  -4.0240  -4.0213  -4.0172  -4.0084  -3.9939
    -3.9867  -3.9707  -3.9586  -3.9275  -3.9139  -3.8985  -3.8931  -3.8895
    -3.8709  -3.8707  -3.8611  -3.8374  -3.8365  -3.8329  -3.8164  -3.8084
    -3.7859  -3.7801  -3.7391  -3.7357  -3.7265  -3.7240  -3.7149  -3.7101
    -3.7009  -3.6852  -3.6807  -3.6711  -3.6589  -3.6404  -3.6192  -3.6191
    -3.6172  -3.6161  -3.6055  -3.6018  -3.5990  -3.5951  -3.5916  -3.5796
    -3.5698  -3.5669  -3.5644  -3.5594  -3.5575  -3.5508  -3.5458  -3.5448
    -3.5434  -3.5342  -3.5235  -3.4922  -3.4822  -3.4562  -3.4540  -3.4429
    -3.4425  -3.4404  -3.4392  -3.4260  -3.4213  -3.4127  -3.4051  -3.3969
    -3.3878  -3.3796  -3.3740  -3.3719  -3.3703  -3.3695  -3.3642  -3.3562
    -3.3525  -3.3373  -3.3356  -3.3268  -3.3260  -3.3243  -3.3199  -3.3170
    -3.3133  -3.3129  -3.3091  -3.3086  -3.2997  -3.2968  -3.2918  -3.2860
    -3.2814  -3.2794  -3.2590  -3.2497  -3.2467  -3.2437  -3.2381  -3.2287
    -3.2196  -3.2188  -3.2141  -3.2101  -3.2021  -3.1997  -3.1889  -3.1805
    -3.1789  -3.1732  -3.1720  -3.1683  -3.1668  -3.1591  -3.1580  -3.1458
    -3.1456  -3.1216  -3.1211  -3.1106  -3.0982  -3.0905  -3.0843  -3.0579
    -3.0413  -3.0399  -3.0344  -3.0332  -3.0261  -3.0238  -3.0230  -3.0180
    -3.0172  -3.0163  -3.0155  -3.0090  -3.0023  -3.0014  -2.9892  -2.9848
    -2.9817  -2.9807  -2.9800  -2.9749  -2.9749  -2.9710  -2.9686  -2.9508
    -2.9151  -2.9130  -2.8900  -2.8757  -2.8741  -2.8623  -2.8597  -2.8492
    -2.8475  -2.8279  -2.8220  -2.8204  -2.7996  -2.7961  -2.7955  -2.7830
    -2.7797  -2.7753  -2.7673  -2.7640  -2.7501  -2.7491  -2.7468  -2.7420
    -2.7232  -2.7224  -2.7206  -2.7179  -2.6627  -2.6543  -2.6461  -2.6366
    -2.6295  -2.6260  -2.6214  -2.5955  -2.5800  -2.5697  -2.5673  -2.5668
    -2.5634  -2.5590  -2.5530  -2.5407  -2.5280  -2.5251  -2.5194  -2.5160
    -2.5089  -2.5071  -2.5010  -2.4928  -2.4898  -2.4862  -2.4804  -2.4792
    -2.4731  -2.4723  -2.4665  -2.4656  -2.4598  -2.4490  -2.4352  -2.4346
    -2.4064  -2.4000  -2.3982  -2.3742  -2.3702  -2.3632  -2.3558  -2.3557
    -2.3486  -2.3452  -2.3355  -2.3323  -2.3152  -2.3003  -2.2928  -2.2718
    -2.2685  -2.2667  -2.2636  -2.2487  -2.2432  -2.2335  -2.2316  -2.2150
    -2.2125  -2.2054  -2.2052  -2.1978  -2.1970  -2.1782  -2.1448  -2.1361
    -2.1303  -2.1058  -2.1023  -2.0847  -2.0674  -2.0484  -2.0474  -2.0441
    -2.0373  -2.0318  -2.0022  -1.9982  -1.9948  -1.9640  -1.9606  -1.9572
    -1.9560  -1.9519  -1.9480  -1.9452  -1.9392  -1.9387  -1.9369  -1.9308
    -1.9299  -1.9275  -1.9170  -1.9122  -1.9078  -1.9020  -1.8646  -1.8556
    -1.8549  -1.8385  -1.8310  -1.8272  -1.8232  -1.8170  -1.8161  -1.8135
    -1.8115  -1.8014  -1.8001  -1.7990  -1.7933  -1.7664  -1.7595  -1.7585
    -1.7574  -1.7483  -1.7431  -1.7424  -1.7365  -1.7365  -1.7266  -1.7238
    -1.7062  -1.7046  -1.6988  -1.6979  -1.6880  -1.6744  -1.6701  -1.6657
    -1.6634  -1.6587  -1.6507  -1.6287  -1.6130  -1.6037  -1.5993  -1.5974
    -1.5791  -1.5759  -1.5754  -1.5739  -1.5601  -1.5447  -1.5043  -1.4991
    -1.4926  -1.4880  -1.4800  -1.4791  -1.4706  -1.4672  -1.4598  -1.4580
    -1.4511  -1.4443  -1.4336  -1.4324  -1.4261  -1.4132  -1.4126  -1.4073
    -1.3996  -1.3816  -1.3717  -1.3684  -1.3629  -1.3579  -1.3453  -1.3396
    -1.3277  -1.3256  -1.3218  -1.3073  -1.3026  -1.2977  -1.2932  -1.2873
    -1.2871  -1.2778  -1.2765  -1.2670  -1.2646  -1.2553  -1.2536  -1.2497
    -1.2416  -1.2397  -1.2279  -1.2276  -1.2199  -1.2193  -1.2191  -1.2188
    -1.2153  -1.2088  -1.2059  -1.1779  -1.1767  -1.1706  -1.1565  -1.1554
    -1.1449  -1.1401  -1.1378  -1.1335  -1.1300  -1.1250  -1.1245  -1.1217
    -1.1189  -1.1075  -1.1059  -1.0985  -1.0874  -1.0828  -1.0800  -1.0780
    -1.0771  -1.0757  -1.0724  -1.0628  -1.0579  -1.0549  -1.0537  -1.0508
    -1.0501  -1.0442  -1.0044  -0.9811  -0.9697  -0.9649  -0.9522  -0.9372
    -0.9358  -0.9293  -0.9245  -0.9207  -0.9161  -0.9077  -0.9003  -0.8819
    -0.8780  -0.8614  -0.8300  -0.8281  -0.8260  -0.7658  -0.6681  -0.6316
    -0.6015  -0.5945  -0.5467  -0.4528  -0.3797  -0.1936  -0.1602  -0.1189
    -0.0035   0.0221   0.0573   0.1553   0.1620   0.1920   0.2706   0.2882
     0.3156   0.3347   0.5887   0.5921   0.6431   0.6719   0.7320   0.7783
     0.8027   0.8035   0.9241   0.9707   0.9832   1.1554   1.1640   1.1985
     1.3018   1.3262   1.3633   1.3876   1.4796   1.5213   1.5258   1.7954
     1.8682   1.8791   1.8972   1.9000   1.9101   1.9752   1.9821   2.0315
     2.0616   2.0734   2.1944   2.4011   2.4063   2.4084   2.4468   2.4514
     2.6432   2.6540   2.6776   2.7099   2.7216   2.7962   2.8417   3.1810
     3.2035   3.2179   3.2817   3.3295   3.3642   3.3779   3.5443   3.5475
     3.5700   3.6170   3.6259   3.7993   3.8064   3.8939   3.9030   4.0004
     4.0226   4.1243   4.1804   4.2439   4.2474   4.2704   4.3018   4.3974
     4.4721   4.4974   4.5211   4.5649   4.6631   4.8052   4.8115   4.8411
     4.8498   4.8524   4.8939   4.9670   4.9890   5.0741   5.0907   5.1945
     5.2015   5.2119   5.2380   5.2619   5.3014   5.4403   5.4932   5.5256
     5.5327   5.5331   5.5444   5.6499   5.6730   5.7196   5.7318   5.8368
     5.8523   5.8739   5.8958   5.9063   5.9064   5.9800   5.9913   6.0159
     6.0172   6.0266   6.0328   6.0423   6.0869   6.1382   6.1417   6.1477
     6.1657   6.2222   6.2291   6.3072   6.4016   6.4091   6.4469   6.4474
     6.4737   6.5149   6.5237   6.5725   6.5878   6.6323   6.6407   6.6540
     6.6608   6.6908   6.7354   6.7482   6.7688   6.8237   6.8288   6.9306
     6.9365   6.9722   6.9727   6.9987   7.0275   7.0636   7.1003   7.1088
     7.1284   7.1636   7.1907   7.1920   7.1999   7.2023   7.2796   7.2909
     7.3065   7.3547   7.3592   7.4025   7.4172   7.4340   7.4641   7.5087
     7.5608   7.5676   7.6063   7.6175   7.6581   7.6582   7.6665   7.6694
     7.6930   7.6938   7.7179   7.7229   7.7376   7.7420   7.7924   7.8309
     7.8580   7.8671   7.8739   7.9403   7.9893   7.9903   8.0018   8.0254

          k =-0.2500 0.5057 0.0000 ( 95386 PWs)   bands (ev):

    -8.0048  -7.7854  -7.3695  -7.1564  -6.9589  -6.8865  -6.8075  -6.6746
    -6.6109  -6.2900  -6.2194  -6.1890  -6.1050  -6.0374  -5.9302  -5.9279
    -5.8887  -5.8391  -5.8310  -5.8249  -5.7939  -5.7361  -5.7240  -5.6814
    -5.6675  -5.6495  -5.6454  -5.6402  -5.5498  -5.5384  -5.5309  -5.5227
    -5.5165  -5.5073  -5.4892  -5.4813  -5.4630  -5.4595  -5.4282  -5.3752
    -5.3691  -5.3537  -5.3515  -5.3171  -5.3099  -5.2939  -5.2912  -5.2337
    -5.2327  -5.2327  -5.2282  -5.2183  -5.1997  -5.1787  -5.1554  -5.1447
    -5.1299  -5.1244  -5.1157  -5.1141  -5.1106  -5.1092  -5.0881  -5.0675
    -5.0647  -5.0570  -5.0559  -5.0488  -5.0407  -5.0377  -5.0304  -4.9877
    -4.9821  -4.9669  -4.9638  -4.9481  -4.9342  -4.9324  -4.9288  -4.9268
    -4.9176  -4.9160  -4.9069  -4.9039  -4.8858  -4.8853  -4.8817  -4.8719
    -4.8718  -4.8621  -4.8596  -4.8487  -4.8280  -4.8270  -4.8247  -4.8221
    -4.7418  -4.7393  -4.7376  -4.7367  -4.7329  -4.7255  -4.7211  -4.7208
    -4.7202  -4.7120  -4.6995  -4.6847  -4.6742  -4.6165  -4.6001  -4.5970
    -4.5933  -4.5850  -4.5624  -4.5610  -4.5574  -4.5267  -4.4705  -4.4695
    -4.4509  -4.4137  -4.3979  -4.3951  -4.3935  -4.3931  -4.3916  -4.3853
    -4.3553  -4.3456  -4.3450  -4.3370  -4.3256  -4.3229  -4.3201  -4.3035
    -4.3021  -4.2738  -4.2644  -4.2573  -4.2476  -4.2451  -4.2293  -4.2105
    -4.1937  -4.1678  -4.1561  -4.1550  -4.1545  -4.1530  -4.1482  -4.1395
    -4.1373  -4.1044  -4.0972  -4.0834  -4.0774  -4.0762  -4.0698  -4.0544
    -4.0505  -4.0352  -4.0306  -4.0240  -4.0213  -4.0172  -4.0084  -3.9939
    -3.9867  -3.9707  -3.9586  -3.9275  -3.9139  -3.8985  -3.8931  -3.8895
    -3.8709  -3.8707  -3.8611  -3.8374  -3.8365  -3.8329  -3.8164  -3.8084
    -3.7859  -3.7801  -3.7391  -3.7357  -3.7264  -3.7241  -3.7149  -3.7101
    -3.7009  -3.6852  -3.6807  -3.6711  -3.6589  -3.6404  -3.6191  -3.6191
    -3.6172  -3.6161  -3.6055  -3.6018  -3.5990  -3.5951  -3.5916  -3.5796
    -3.5698  -3.5669  -3.5644  -3.5594  -3.5575  -3.5508  -3.5458  -3.5448
    -3.5434  -3.5342  -3.5235  -3.4922  -3.4822  -3.4562  -3.4540  -3.4429
    -3.4425  -3.4404  -3.4392  -3.4260  -3.4213  -3.4127  -3.4051  -3.3969
    -3.3878  -3.3796  -3.3740  -3.3719  -3.3703  -3.3695  -3.3642  -3.3562
    -3.3525  -3.3373  -3.3356  -3.3268  -3.3260  -3.3243  -3.3199  -3.3170
    -3.3133  -3.3129  -3.3091  -3.3086  -3.2997  -3.2969  -3.2918  -3.2860
    -3.2814  -3.2794  -3.2590  -3.2496  -3.2467  -3.2437  -3.2381  -3.2287
    -3.2196  -3.2188  -3.2141  -3.2101  -3.2021  -3.1997  -3.1889  -3.1805
    -3.1789  -3.1732  -3.1720  -3.1683  -3.1668  -3.1591  -3.1580  -3.1458
    -3.1456  -3.1216  -3.1211  -3.1106  -3.0982  -3.0905  -3.0843  -3.0579
    -3.0413  -3.0399  -3.0344  -3.0332  -3.0261  -3.0238  -3.0230  -3.0180
    -3.0172  -3.0163  -3.0155  -3.0090  -3.0023  -3.0014  -2.9893  -2.9848
    -2.9818  -2.9806  -2.9799  -2.9749  -2.9749  -2.9710  -2.9686  -2.9508
    -2.9151  -2.9130  -2.8900  -2.8757  -2.8741  -2.8623  -2.8597  -2.8492
    -2.8475  -2.8279  -2.8220  -2.8204  -2.7996  -2.7961  -2.7955  -2.7830
    -2.7797  -2.7753  -2.7673  -2.7640  -2.7501  -2.7491  -2.7468  -2.7420
    -2.7232  -2.7224  -2.7206  -2.7179  -2.6627  -2.6543  -2.6461  -2.6366
    -2.6295  -2.6260  -2.6214  -2.5955  -2.5800  -2.5697  -2.5673  -2.5668
    -2.5635  -2.5589  -2.5530  -2.5407  -2.5280  -2.5251  -2.5194  -2.5160
    -2.5089  -2.5071  -2.5011  -2.4928  -2.4898  -2.4862  -2.4804  -2.4792
    -2.4731  -2.4723  -2.4665  -2.4656  -2.4598  -2.4490  -2.4352  -2.4346
    -2.4064  -2.4000  -2.3982  -2.3742  -2.3702  -2.3632  -2.3558  -2.3557
    -2.3486  -2.3452  -2.3355  -2.3323  -2.3152  -2.3003  -2.2928  -2.2718
    -2.2685  -2.2667  -2.2636  -2.2487  -2.2432  -2.2335  -2.2316  -2.2150
    -2.2125  -2.2054  -2.2052  -2.1978  -2.1970  -2.1782  -2.1448  -2.1361
    -2.1303  -2.1058  -2.1023  -2.0847  -2.0674  -2.0484  -2.0474  -2.0441
    -2.0373  -2.0318  -2.0022  -1.9982  -1.9948  -1.9640  -1.9606  -1.9572
    -1.9560  -1.9519  -1.9480  -1.9452  -1.9392  -1.9387  -1.9369  -1.9308
    -1.9299  -1.9275  -1.9170  -1.9122  -1.9078  -1.9020  -1.8646  -1.8556
    -1.8549  -1.8385  -1.8310  -1.8272  -1.8232  -1.8170  -1.8161  -1.8136
    -1.8115  -1.8014  -1.8001  -1.7990  -1.7933  -1.7664  -1.7595  -1.7585
    -1.7574  -1.7483  -1.7431  -1.7424  -1.7365  -1.7365  -1.7266  -1.7238
    -1.7062  -1.7046  -1.6988  -1.6979  -1.6880  -1.6744  -1.6701  -1.6657
    -1.6635  -1.6587  -1.6507  -1.6287  -1.6130  -1.6037  -1.5993  -1.5974
    -1.5791  -1.5759  -1.5754  -1.5739  -1.5601  -1.5447  -1.5043  -1.4991
    -1.4926  -1.4880  -1.4800  -1.4791  -1.4706  -1.4672  -1.4598  -1.4580
    -1.4511  -1.4443  -1.4336  -1.4324  -1.4261  -1.4132  -1.4126  -1.4073
    -1.3996  -1.3816  -1.3717  -1.3684  -1.3629  -1.3580  -1.3453  -1.3396
    -1.3277  -1.3256  -1.3218  -1.3073  -1.3026  -1.2977  -1.2932  -1.2873
    -1.2871  -1.2778  -1.2765  -1.2670  -1.2646  -1.2553  -1.2536  -1.2497
    -1.2416  -1.2397  -1.2279  -1.2276  -1.2199  -1.2193  -1.2191  -1.2188
    -1.2153  -1.2088  -1.2059  -1.1779  -1.1767  -1.1706  -1.1565  -1.1554
    -1.1449  -1.1401  -1.1378  -1.1335  -1.1300  -1.1250  -1.1245  -1.1217
    -1.1189  -1.1075  -1.1059  -1.0985  -1.0874  -1.0828  -1.0800  -1.0780
    -1.0771  -1.0757  -1.0724  -1.0628  -1.0579  -1.0549  -1.0537  -1.0508
    -1.0501  -1.0442  -1.0044  -0.9811  -0.9697  -0.9649  -0.9522  -0.9373
    -0.9357  -0.9293  -0.9245  -0.9207  -0.9161  -0.9077  -0.9003  -0.8819
    -0.8780  -0.8614  -0.8300  -0.8280  -0.8260  -0.7658  -0.6681  -0.6316
    -0.6015  -0.5945  -0.5467  -0.4528  -0.3797  -0.1936  -0.1602  -0.1189
    -0.0035   0.0221   0.0573   0.1553   0.1620   0.1920   0.2706   0.2882
     0.3156   0.3347   0.5887   0.5921   0.6431   0.6719   0.7320   0.7783
     0.8027   0.8035   0.9241   0.9707   0.9832   1.1554   1.1640   1.1985
     1.3018   1.3262   1.3633   1.3876   1.4796   1.5213   1.5258   1.7954
     1.8682   1.8791   1.8972   1.9000   1.9101   1.9752   1.9821   2.0315
     2.0616   2.0734   2.1944   2.4011   2.4063   2.4084   2.4468   2.4514
     2.6432   2.6540   2.6776   2.7099   2.7216   2.7962   2.8417   3.1810
     3.2035   3.2179   3.2817   3.3295   3.3642   3.3779   3.5443   3.5475
     3.5700   3.6170   3.6259   3.7993   3.8064   3.8939   3.9030   4.0004
     4.0226   4.1243   4.1804   4.2439   4.2474   4.2704   4.3018   4.3974
     4.4721   4.4974   4.5211   4.5649   4.6631   4.8052   4.8115   4.8411
     4.8498   4.8524   4.8939   4.9670   4.9890   5.0741   5.0907   5.1945
     5.2015   5.2119   5.2380   5.2619   5.3014   5.4403   5.4932   5.5256
     5.5327   5.5331   5.5444   5.6499   5.6730   5.7196   5.7318   5.8368
     5.8523   5.8739   5.8958   5.9063   5.9064   5.9800   5.9913   6.0159
     6.0172   6.0266   6.0328   6.0423   6.0869   6.1382   6.1417   6.1477
     6.1657   6.2222   6.2291   6.3072   6.4016   6.4091   6.4469   6.4474
     6.4737   6.5149   6.5238   6.5725   6.5878   6.6323   6.6407   6.6540
     6.6608   6.6908   6.7354   6.7482   6.7688   6.8237   6.8288   6.9306
     6.9365   6.9722   6.9727   6.9987   7.0275   7.0636   7.1003   7.1088
     7.1284   7.1636   7.1907   7.1920   7.1999   7.2023   7.2796   7.2909
     7.3065   7.3547   7.3592   7.4026   7.4172   7.4340   7.4641   7.5087
     7.5608   7.5676   7.6063   7.6175   7.6581   7.6582   7.6665   7.6694
     7.6930   7.6938   7.7179   7.7229   7.7376   7.7420   7.7924   7.8309
     7.8580   7.8671   7.8741   7.9407   7.9893   7.9902   8.0017   8.0253

     the Fermi energy is     0.7845 ev

!    total energy              =  -11427.09402173 Ry
     estimated scf accuracy    <       0.00000050 Ry
     smearing contrib. (-TS)   =       0.06310507 Ry
     internal energy E=F+TS    =  -11427.15712680 Ry

     The total energy is F=E-TS. E is the sum of the following terms:
     one-electron contribution = -129707.72578581 Ry
     hartree contribution      =   65677.91093400 Ry
     xc contribution           =   -5523.82479298 Ry
     ewald contribution        =   58126.48251799 Ry

     convergence has been achieved in  23 iterations

     negative rho (up, down):  3.085E+00 0.000E+00

     Forces acting on atoms (cartesian axes, Ry/au):

     atom    1 type  1   force =    -0.00093944    0.00016092    0.00834188
     atom    2 type  1   force =    -0.00093183   -0.00021670    0.00806630
     atom    3 type  1   force =    -0.00014559    0.00022259    0.00894357
     atom    4 type  1   force =    -0.00014383   -0.00016178    0.00866301
     atom    5 type  1   force =     0.00000482    0.00025306    0.00897711
     atom    6 type  1   force =     0.00000376   -0.00013212    0.00869637
     atom    7 type  1   force =    -0.00016558    0.00023362    0.00892557
     atom    8 type  1   force =    -0.00016414   -0.00015103    0.00864387
     atom    9 type  1   force =     0.00005105    0.00023388    0.00896388
     atom   10 type  1   force =     0.00005149   -0.00015138    0.00868257
     atom   11 type  1   force =    -0.00005273    0.00024627    0.00905781
     atom   12 type  1   force =    -0.00005161   -0.00013958    0.00877725
     atom   13 type  1   force =     0.00087208    0.00026853    0.00884257
     atom   14 type  1   force =     0.00086823   -0.00011576    0.00856366
     atom   15 type  1   force =    -0.00121525    0.00041433   -0.00523217
     atom   16 type  1   force =    -0.00121083   -0.00006949   -0.00533999
     atom   17 type  1   force =    -0.00014711    0.00038814   -0.00528324
     atom   18 type  1   force =    -0.00014526   -0.00010727   -0.00539064
     atom   19 type  1   force =     0.00005494    0.00039198   -0.00533146
     atom   20 type  1   force =     0.00005390   -0.00010148   -0.00544049
     atom   21 type  1   force =    -0.00019739    0.00039446   -0.00537569
     atom   22 type  1   force =    -0.00019686   -0.00009641   -0.00548499
     atom   23 type  1   force =     0.00003353    0.00039577   -0.00534623
     atom   24 type  1   force =     0.00003309   -0.00009741   -0.00545561
     atom   25 type  1   force =    -0.00012256    0.00039055   -0.00529348
     atom   26 type  1   force =    -0.00012276   -0.00010503   -0.00540307
     atom   27 type  1   force =     0.00109067    0.00039002   -0.00523305
     atom   28 type  1   force =     0.00108861   -0.00010229   -0.00534273
     atom   29 type  1   force =    -0.00055655   -0.00010298    0.00853959
     atom   30 type  1   force =    -0.00055745   -0.00050379    0.00858978
     atom   31 type  1   force =    -0.00008245   -0.00012298    0.00872833
     atom   32 type  1   force =    -0.00008265   -0.00052516    0.00877867
     atom   33 type  1   force =     0.00003447   -0.00013493    0.00865929
     atom   34 type  1   force =     0.00003557   -0.00053691    0.00870880
     atom   35 type  1   force =    -0.00007528   -0.00012243    0.00871714
     atom   36 type  1   force =    -0.00007526   -0.00052324    0.00876718
     atom   37 type  1   force =    -0.00010899   -0.00012763    0.00872758
     atom   38 type  1   force =    -0.00010947   -0.00052993    0.00877761
     atom   39 type  1   force =     0.00017341   -0.00013315    0.00879279
     atom   40 type  1   force =     0.00017313   -0.00053634    0.00884331
     atom   41 type  1   force =     0.00098173   -0.00022005    0.00806593
     atom   42 type  1   force =     0.00098612   -0.00061179    0.00811658
     atom   43 type  1   force =    -0.00069494   -0.00010874   -0.00527356
     atom   44 type  1   force =    -0.00069781   -0.00062293   -0.00524777
     atom   45 type  1   force =    -0.00005638   -0.00011012   -0.00534565
     atom   46 type  1   force =    -0.00005687   -0.00062519   -0.00531907
     atom   47 type  1   force =     0.00009221   -0.00010310   -0.00539729
     atom   48 type  1   force =     0.00009464   -0.00061589   -0.00537092
     atom   49 type  1   force =    -0.00010639   -0.00010510   -0.00540561
     atom   50 type  1   force =    -0.00010632   -0.00062005   -0.00537924
     atom   51 type  1   force =    -0.00017811   -0.00010339   -0.00535265
     atom   52 type  1   force =    -0.00017958   -0.00061757   -0.00532425
     atom   53 type  1   force =     0.00017185   -0.00011479   -0.00531062
     atom   54 type  1   force =     0.00017356   -0.00063111   -0.00528309
     atom   55 type  1   force =     0.00125819   -0.00007357   -0.00527230
     atom   56 type  1   force =     0.00126476   -0.00057871   -0.00524476
     atom   57 type  1   force =    -0.00091934    0.00068962   -0.00840175
     atom   58 type  1   force =    -0.00091441    0.00023428   -0.00807957
     atom   59 type  1   force =    -0.00007390    0.00064250   -0.00900454
     atom   60 type  1   force =    -0.00007297    0.00017874   -0.00868015
     atom   61 type  1   force =     0.00008173    0.00061391   -0.00904621
     atom   62 type  1   force =     0.00008149    0.00014887   -0.00872082
     atom   63 type  1   force =    -0.00014149    0.00063090   -0.00900378
     atom   64 type  1   force =    -0.00014165    0.00016612   -0.00867784
     atom   65 type  1   force =     0.00000589    0.00063132   -0.00903948
     atom   66 type  1   force =     0.00000716    0.00016749   -0.00871357
     atom   67 type  1   force =    -0.00013551    0.00061943   -0.00912853
     atom   68 type  1   force =    -0.00013491    0.00015575   -0.00880277
     atom   69 type  1   force =     0.00081579    0.00059553   -0.00890764
     atom   70 type  1   force =     0.00081113    0.00013285   -0.00858235
     atom   71 type  1   force =    -0.00067159    0.00075975    0.00522711
     atom   72 type  1   force =    -0.00066958    0.00022578    0.00539042
     atom   73 type  1   force =    -0.00001433    0.00076284    0.00522033
     atom   74 type  1   force =    -0.00001292    0.00022713    0.00538569
     atom   75 type  1   force =     0.00011831    0.00075426    0.00518979
     atom   76 type  1   force =     0.00011610    0.00021863    0.00535515
     atom   77 type  1   force =    -0.00010906    0.00075851    0.00516964
     atom   78 type  1   force =    -0.00010984    0.00022291    0.00533594
     atom   79 type  1   force =    -0.00021315    0.00075621    0.00517085
     atom   80 type  1   force =    -0.00021123    0.00022026    0.00533598
     atom   81 type  1   force =     0.00013929    0.00076808    0.00521396
     atom   82 type  1   force =     0.00013725    0.00023142    0.00537844
     atom   83 type  1   force =     0.00125302    0.00071473    0.00523395
     atom   84 type  1   force =     0.00124677    0.00018881    0.00539733
     atom   85 type  1   force =    -0.00120207    0.00005089    0.00539537
     atom   86 type  1   force =    -0.00120724   -0.00074842    0.00557456
     atom   87 type  1   force =    -0.00010725    0.00008681    0.00539885
     atom   88 type  1   force =    -0.00010885   -0.00072259    0.00557722
     atom   89 type  1   force =     0.00008995    0.00008302    0.00535707
     atom   90 type  1   force =     0.00009127   -0.00072876    0.00553473
     atom   91 type  1   force =    -0.00018392    0.00007749    0.00534229
     atom   92 type  1   force =    -0.00018409   -0.00073352    0.00551974
     atom   93 type  1   force =     0.00001377    0.00007908    0.00532745
     atom   94 type  1   force =     0.00001324   -0.00073319    0.00550384
     atom   95 type  1   force =    -0.00016263    0.00008682    0.00535089
     atom   96 type  1   force =    -0.00016218   -0.00072645    0.00552839
     atom   97 type  1   force =     0.00106381    0.00008450    0.00536691
     atom   98 type  1   force =     0.00106683   -0.00072650    0.00554464
     atom   99 type  1   force =    -0.00050733    0.00011677   -0.00854013
     atom  100 type  1   force =    -0.00050810   -0.00029157   -0.00860099
     atom  101 type  1   force =    -0.00000018    0.00013961   -0.00873516
     atom  102 type  1   force =    -0.00000010   -0.00026931   -0.00879704
     atom  103 type  1   force =     0.00008909    0.00014996   -0.00867734
     atom  104 type  1   force =     0.00008946   -0.00025910   -0.00873830
     atom  105 type  1   force =    -0.00008856    0.00013387   -0.00873159
     atom  106 type  1   force =    -0.00008809   -0.00027408   -0.00879269
     atom  107 type  1   force =    -0.00017752    0.00014371   -0.00874178
     atom  108 type  1   force =    -0.00017806   -0.00026464   -0.00880284
     atom  109 type  1   force =     0.00009358    0.00014994   -0.00880152
     atom  110 type  1   force =     0.00009418   -0.00026001   -0.00886234
     atom  111 type  1   force =     0.00096032    0.00023147   -0.00806718
     atom  112 type  1   force =     0.00096409   -0.00016727   -0.00812701

     Total force =     0.076745     Total SCF correction =     0.004298
     Message from routine punch:
     Nothing written, as per user request (disk_io='none')
 
     init_run     :     17.91s CPU     24.26s WALL (       1 calls)
     electrons    :    131.87s CPU    136.06s WALL (       1 calls)
     forces       :      3.00s CPU      3.19s WALL (       1 calls)

     Called by init_run:
     wfcinit      :      1.66s CPU      1.74s WALL (       1 calls)
     potinit      :     13.88s CPU     18.32s WALL (       1 calls)
     hinit0       :      1.51s CPU      1.62s WALL (       1 calls)

     Called by electrons:
     c_bands      :     93.35s CPU     93.98s WALL (      24 calls)
     sum_band     :     19.23s CPU     19.58s WALL (      24 calls)
     v_of_rho     :      4.95s CPU      5.77s WALL (      24 calls)
     newd         :      2.28s CPU      2.49s WALL (      24 calls)
                                        2.49s GPU  (      24 calls)
     mix_rho      :      4.56s CPU      5.42s WALL (      24 calls)

     Called by c_bands:
     init_us_2    :      0.88s CPU      0.88s WALL (      49 calls)
     cegterg      :     87.02s CPU     87.48s WALL (      24 calls)

     Called by *egterg:
     cdiaghg      :      6.15s CPU      6.24s WALL (     140 calls)
                                        6.24s GPU  (     140 calls)
     h_psi        :     45.19s CPU     45.49s WALL (     142 calls)
                                       45.39s GPU  (     142 calls)
     s_psi        :      0.63s CPU      0.63s WALL (     142 calls)
     g_psi        :      0.00s CPU      0.21s WALL (     117 calls)
                                        0.21s GPU  (     117 calls)

     Called by h_psi:
     h_psi:calbec :      0.01s CPU      7.28s WALL (     142 calls)
                                        7.28s GPU  (     142 calls)
     vloc_psi     :     29.74s CPU     29.94s WALL (     142 calls)
                                       29.94s GPU  (     142 calls)
     add_vuspsi   :      0.39s CPU      7.80s WALL (     142 calls)
                                        7.80s GPU  (     142 calls)

     General routines
     calbec       :      0.01s CPU      0.01s WALL (     170 calls)
     fft          :     12.75s CPU     16.60s WALL (     322 calls)
                                        0.23s GPU  (     298 calls)
     ffts         :      6.33s CPU      8.48s WALL (      48 calls)
                                        0.01s GPU  (      24 calls)
     fftw         :      0.07s CPU     24.85s WALL (    6888 calls)
                                       24.79s GPU  (    6888 calls)
     interpolate  :     19.74s CPU     25.57s WALL (      24 calls)
 
     Parallel routines
 
     PWSCF        :   2m32.90s CPU   2m44.25s WALL

 
   This run was terminated on:  18:51: 3  28Feb2025            

=------------------------------------------------------------------------------=
   JOB DONE.
=------------------------------------------------------------------------------=
