
     Program PWSCF v.7.3.1 starts on 28Feb2025 at 21:11:29 

     This program is part of the open-source Quantum ESPRESSO suite
     for quantum simulation of materials; please cite
         "P. Giannozzi et al., J. Phys.:Condens. Matter 21 395502 (2009);
         "P. Giannozzi et al., J. Phys.:Condens. Matter 29 465901 (2017);
         "P. Giannozzi et al., J. Chem. Phys. 152 154105 (2020);
          URL http://www.quantum-espresso.org", 
     in publications or presentations arising from this work. More details at
     http://www.quantum-espresso.org/quote

     Parallel version (MPI & OpenMP), running on     128 processor cores
     Number of MPI processes:                 4
     Threads/MPI process:                    32

     MPI processes distributed on     1 nodes
     234529 MiB available memory on the printing compute node when the environment starts
 
     Reading input from pw.in

     Current dimensions of program PWSCF are:
     Max number of different atomic species (ntypx) = 10
     Max number of k-points (npk) =  40000
     Max angular momentum in pseudopotentials (lmaxx) =  4
 
     K-points division:     npool     =       2
     R & G space division:  proc/nbgrp/npool/nimage =       2
     Subspace diagonalization in iterative solution of the eigenvalue problem:
     a serial algorithm will be used

 
     Parallelization info
     --------------------
     sticks:   dense  smooth     PW     G-vecs:    dense   smooth      PW
     Min        5918    2957    768              1079188   381653   50372
     Max        5919    2958    769              1079193   381654   50375
     Sum       11837    5915   1537              2158381   763307  100747
 
     Using Slab Decomposition
 

     Title: 
      DEISA pw benchmark                                                        


     bravais-lattice index     =            8
     lattice parameter (alat)  =      38.7583  a.u.
     unit-cell volume          =   45191.4962 (a.u.)^3
     number of atoms/cell      =          112
     number of atomic types    =            1
     number of electrons       =      1232.00
     number of Kohn-Sham states=          800
     kinetic-energy cutoff     =      25.0000  Ry
     charge density cutoff     =     200.0000  Ry
     scf convergence threshold =      1.0E-06
     mixing beta               =       0.7000
     number of iterations used =            8  plain     mixing
     Exchange-correlation=  SLA  PW   PBE  PBE
                           (   1   4   3   4   0   0   0)

     celldm(1)=  38.758300  celldm(2)=   0.494393  celldm(3)=   1.569966
     celldm(4)=   0.000000  celldm(5)=   0.000000  celldm(6)=   0.000000

     crystal axes: (cart. coord. in units of alat)
               a(1) = (   1.000000   0.000000   0.000000 )  
               a(2) = (   0.000000   0.494393   0.000000 )  
               a(3) = (   0.000000   0.000000   1.569966 )  

     reciprocal axes: (cart. coord. in units 2 pi/alat)
               b(1) = (  1.000000  0.000000  0.000000 )  
               b(2) = (  0.000000  2.022682  0.000000 )  
               b(3) = (  0.000000  0.000000  0.636956 )  


     PseudoPot. # 1 for Au read from file:
     ./Au.pbe-nd-van.UPF
     MD5 check sum: deb5c07af10777505a79e28f5b4b4115
     Pseudo is Ultrasoft + core correction, Zval = 11.0
     Generated by new atomic code, or converted to UPF format
     Using radial grid of  985 points,  3 beta functions with: 
                l(1) =   1
                l(2) =   2
                l(3) =   2
     Q(r) pseudized with  8 coefficients,  rinner =    1.100   1.100   1.100
                                                       1.100   1.100

     atomic species   valence    mass     pseudopotential
     AU               11.00   196.96000     Au( 1.00)

     No symmetry found



   Cartesian axes

     site n.     atom                  positions (alat units)
         1        AU     tau(   1) = (   1.4278394   1.9784974   0.3497317  )
         2        AU     tau(   2) = (   1.4278394   1.7313986   0.3497317  )
         3        AU     tau(   3) = (   1.5706478   1.9784974   0.3497317  )
         4        AU     tau(   4) = (   1.5706478   1.7313986   0.3497317  )
         5        AU     tau(   5) = (   1.7134072   1.9784974   0.3497317  )
         6        AU     tau(   6) = (   1.7134072   1.7313986   0.3497317  )
         7        AU     tau(   7) = (   1.8562156   1.9784974   0.3497317  )
         8        AU     tau(   8) = (   1.8562156   1.7313986   0.3497317  )
         9        AU     tau(   9) = (   1.9989753   1.9784974   0.3497317  )
        10        AU     tau(  10) = (   1.9989753   1.7313986   0.3497317  )
        11        AU     tau(  11) = (   2.1417836   1.9784974   0.3497317  )
        12        AU     tau(  12) = (   2.1417836   1.7313986   0.3497317  )
        13        AU     tau(  13) = (   2.2845431   1.9784974   0.3497317  )
        14        AU     tau(  14) = (   2.2845431   1.7313986   0.3497317  )
        15        AU     tau(  15) = (   1.4278394   2.0609450   0.2331545  )
        16        AU     tau(  16) = (   1.4278394   1.8138461   0.2331545  )
        17        AU     tau(  17) = (   1.5706478   2.0609450   0.2331545  )
        18        AU     tau(  18) = (   1.5706478   1.8138461   0.2331545  )
        19        AU     tau(  19) = (   1.7134072   2.0609450   0.2331545  )
        20        AU     tau(  20) = (   1.7134072   1.8138461   0.2331545  )
        21        AU     tau(  21) = (   1.8562156   2.0609450   0.2331545  )
        22        AU     tau(  22) = (   1.8562156   1.8138461   0.2331545  )
        23        AU     tau(  23) = (   1.9989753   2.0609450   0.2331545  )
        24        AU     tau(  24) = (   1.9989753   1.8138461   0.2331545  )
        25        AU     tau(  25) = (   2.1417836   2.0609450   0.2331545  )
        26        AU     tau(  26) = (   2.1417836   1.8138461   0.2331545  )
        27        AU     tau(  27) = (   2.2845431   2.0609450   0.2331545  )
        28        AU     tau(  28) = (   2.2845431   1.8138461   0.2331545  )
        29        AU     tau(  29) = (   1.4992193   2.1021445   0.3497317  )
        30        AU     tau(  30) = (   1.4992193   1.8550455   0.3497317  )
        31        AU     tau(  31) = (   1.6420276   2.1021445   0.3497317  )
        32        AU     tau(  32) = (   1.6420276   1.8550455   0.3497317  )
        33        AU     tau(  33) = (   1.7847871   2.1021445   0.3497317  )
        34        AU     tau(  34) = (   1.7847871   1.8550455   0.3497317  )
        35        AU     tau(  35) = (   1.9275954   2.1021445   0.3497317  )
        36        AU     tau(  36) = (   1.9275954   1.8550455   0.3497317  )
        37        AU     tau(  37) = (   2.0704038   2.1021445   0.3497317  )
        38        AU     tau(  38) = (   2.0704038   1.8550455   0.3497317  )
        39        AU     tau(  39) = (   2.2131632   2.1021445   0.3497317  )
        40        AU     tau(  40) = (   2.2131632   1.8550455   0.3497317  )
        41        AU     tau(  41) = (   2.3559716   2.1021445   0.3497317  )
        42        AU     tau(  42) = (   2.3559716   1.8550455   0.3497317  )
        43        AU     tau(  43) = (   1.4992193   1.6901992   0.2331545  )
        44        AU     tau(  44) = (   1.4992193   1.9374930   0.2331545  )
        45        AU     tau(  45) = (   1.6420276   1.6901992   0.2331545  )
        46        AU     tau(  46) = (   1.6420276   1.9374930   0.2331545  )
        47        AU     tau(  47) = (   1.7847871   1.6901992   0.2331545  )
        48        AU     tau(  48) = (   1.7847871   1.9374930   0.2331545  )
        49        AU     tau(  49) = (   1.9275954   1.6901992   0.2331545  )
        50        AU     tau(  50) = (   1.9275954   1.9374930   0.2331545  )
        51        AU     tau(  51) = (   2.0704038   1.6901992   0.2331545  )
        52        AU     tau(  52) = (   2.0704038   1.9374930   0.2331545  )
        53        AU     tau(  53) = (   2.2131632   1.6901992   0.2331545  )
        54        AU     tau(  54) = (   2.2131632   1.9374930   0.2331545  )
        55        AU     tau(  55) = (   2.3559716   1.6901992   0.2331545  )
        56        AU     tau(  56) = (   2.3559716   1.9374930   0.2331545  )
        57        AU     tau(  57) = (   1.4278394   1.9784974   0.0000000  )
        58        AU     tau(  58) = (   1.4278394   1.7313986   0.0000000  )
        59        AU     tau(  59) = (   1.5706478   1.9784974   0.0000000  )
        60        AU     tau(  60) = (   1.5706478   1.7313986   0.0000000  )
        61        AU     tau(  61) = (   1.7134072   1.9784974   0.0000000  )
        62        AU     tau(  62) = (   1.7134072   1.7313986   0.0000000  )
        63        AU     tau(  63) = (   1.8562156   1.9784974   0.0000000  )
        64        AU     tau(  64) = (   1.8562156   1.7313986   0.0000000  )
        65        AU     tau(  65) = (   1.9989753   1.9784974   0.0000000  )
        66        AU     tau(  66) = (   1.9989753   1.7313986   0.0000000  )
        67        AU     tau(  67) = (   2.1417836   1.9784974   0.0000000  )
        68        AU     tau(  68) = (   2.1417836   1.7313986   0.0000000  )
        69        AU     tau(  69) = (   2.2845431   1.9784974   0.0000000  )
        70        AU     tau(  70) = (   2.2845431   1.7313986   0.0000000  )
        71        AU     tau(  71) = (   1.4992193   2.0196968   0.1165772  )
        72        AU     tau(  72) = (   1.4992193   1.7725979   0.1165772  )
        73        AU     tau(  73) = (   1.6420276   2.0196968   0.1165772  )
        74        AU     tau(  74) = (   1.6420276   1.7725979   0.1165772  )
        75        AU     tau(  75) = (   1.7847871   2.0196968   0.1165772  )
        76        AU     tau(  76) = (   1.7847871   1.7725979   0.1165772  )
        77        AU     tau(  77) = (   1.9275954   2.0196968   0.1165772  )
        78        AU     tau(  78) = (   1.9275954   1.7725979   0.1165772  )
        79        AU     tau(  79) = (   2.0704038   2.0196968   0.1165772  )
        80        AU     tau(  80) = (   2.0704038   1.7725979   0.1165772  )
        81        AU     tau(  81) = (   2.2131632   2.0196968   0.1165772  )
        82        AU     tau(  82) = (   2.2131632   1.7725979   0.1165772  )
        83        AU     tau(  83) = (   2.3559716   2.0196968   0.1165772  )
        84        AU     tau(  84) = (   2.3559716   1.7725979   0.1165772  )
        85        AU     tau(  85) = (   1.4278394   2.1433437   0.1165772  )
        86        AU     tau(  86) = (   1.4278394   1.8962937   0.1165772  )
        87        AU     tau(  87) = (   1.5706478   2.1433437   0.1165772  )
        88        AU     tau(  88) = (   1.5706478   1.8962937   0.1165772  )
        89        AU     tau(  89) = (   1.7134072   2.1433437   0.1165772  )
        90        AU     tau(  90) = (   1.7134072   1.8962937   0.1165772  )
        91        AU     tau(  91) = (   1.8562156   2.1433437   0.1165772  )
        92        AU     tau(  92) = (   1.8562156   1.8962937   0.1165772  )
        93        AU     tau(  93) = (   1.9989753   2.1433437   0.1165772  )
        94        AU     tau(  94) = (   1.9989753   1.8962937   0.1165772  )
        95        AU     tau(  95) = (   2.1417836   2.1433437   0.1165772  )
        96        AU     tau(  96) = (   2.1417836   1.8962937   0.1165772  )
        97        AU     tau(  97) = (   2.2845431   2.1433437   0.1165772  )
        98        AU     tau(  98) = (   2.2845431   1.8962937   0.1165772  )
        99        AU     tau(  99) = (   1.4992193   2.1021445   0.0000000  )
       100        AU     tau( 100) = (   1.4992193   1.8550455   0.0000000  )
       101        AU     tau( 101) = (   1.6420276   2.1021445   0.0000000  )
       102        AU     tau( 102) = (   1.6420276   1.8550455   0.0000000  )
       103        AU     tau( 103) = (   1.7847871   2.1021445   0.0000000  )
       104        AU     tau( 104) = (   1.7847871   1.8550455   0.0000000  )
       105        AU     tau( 105) = (   1.9275954   2.1021445   0.0000000  )
       106        AU     tau( 106) = (   1.9275954   1.8550455   0.0000000  )
       107        AU     tau( 107) = (   2.0704038   2.1021445   0.0000000  )
       108        AU     tau( 108) = (   2.0704038   1.8550455   0.0000000  )
       109        AU     tau( 109) = (   2.2131632   2.1021445   0.0000000  )
       110        AU     tau( 110) = (   2.2131632   1.8550455   0.0000000  )
       111        AU     tau( 111) = (   2.3559716   2.1021445   0.0000000  )
       112        AU     tau( 112) = (   2.3559716   1.8550455   0.0000000  )

     number of k points=     2  Marzari-Vanderbilt smearing, width (Ry)=  0.0500
                       cart. coord. in units 2pi/alat
        k(    1) = (   0.2500000   0.5056706   0.0000000), wk =   1.0000000
        k(    2) = (  -0.2500000   0.5056706   0.0000000), wk =   1.0000000

     Dense  grid:  2158381 G-vectors     FFT dimensions: ( 180,  90, 288)

     Smooth grid:   763307 G-vectors     FFT dimensions: ( 125,  64, 200)

     Estimated max dynamical RAM per process >       5.74 GB

     Estimated total dynamical RAM >      22.44 GB

     Initial potential from superposition of free atoms

     starting charge    1230.6995, renormalised to    1232.0000

     negative rho (up, down):  3.043E+00 0.000E+00
     Starting wfcs are 1008 randomized atomic wfcs

     total cpu time spent up to now is       18.5 secs

     Self-consistent Calculation

     iteration #  1     ecut=    25.00 Ry     beta= 0.70
     Davidson diagonalization with overlap
     ethr =  1.00E-02,  avg # of iterations =  5.0

     Threshold (ethr) on eigenvalues was too large:
     Diagonalizing with lowered threshold

     Davidson diagonalization with overlap
     c_bands:  3 eigenvalues not converged
     ethr =  4.37E-04,  avg # of iterations = 20.0

     negative rho (up, down):  2.992E+00 0.000E+00

     total cpu time spent up to now is      147.4 secs

     total energy              =  -11423.48953210 Ry
     estimated scf accuracy    <       6.31677758 Ry

     iteration #  2     ecut=    25.00 Ry     beta= 0.70
     Davidson diagonalization with overlap
     ethr =  5.13E-04,  avg # of iterations = 16.0

     negative rho (up, down):  2.993E+00 0.000E+00

     total cpu time spent up to now is      252.1 secs

     total energy              =  -11408.37883081 Ry
     estimated scf accuracy    <     196.20387660 Ry

     iteration #  3     ecut=    25.00 Ry     beta= 0.70
     Davidson diagonalization with overlap
     ethr =  5.13E-04,  avg # of iterations = 10.5

     negative rho (up, down):  3.038E+00 0.000E+00

     total cpu time spent up to now is      336.0 secs

     total energy              =  -11426.41163769 Ry
     estimated scf accuracy    <       5.03417965 Ry

     iteration #  4     ecut=    25.00 Ry     beta= 0.70
     Davidson diagonalization with overlap
     ethr =  4.09E-04,  avg # of iterations =  2.5

     negative rho (up, down):  3.046E+00 0.000E+00

     total cpu time spent up to now is      376.2 secs

     total energy              =  -11426.62750856 Ry
     estimated scf accuracy    <       4.18859693 Ry

     iteration #  5     ecut=    25.00 Ry     beta= 0.70
     Davidson diagonalization with overlap
     ethr =  3.40E-04,  avg # of iterations =  2.0

     negative rho (up, down):  3.061E+00 0.000E+00

     total cpu time spent up to now is      414.2 secs

     total energy              =  -11426.86609626 Ry
     estimated scf accuracy    <       4.92153489 Ry

     iteration #  6     ecut=    25.00 Ry     beta= 0.70
     Davidson diagonalization with overlap
     ethr =  3.40E-04,  avg # of iterations =  1.0

     negative rho (up, down):  3.070E+00 0.000E+00

     total cpu time spent up to now is      448.2 secs

     total energy              =  -11427.08075878 Ry
     estimated scf accuracy    <       0.09058178 Ry

     iteration #  7     ecut=    25.00 Ry     beta= 0.70
     Davidson diagonalization with overlap
     c_bands:  2 eigenvalues not converged
     ethr =  7.35E-06,  avg # of iterations = 20.0

     negative rho (up, down):  3.079E+00 0.000E+00

     total cpu time spent up to now is      541.5 secs

     total energy              =  -11427.07324785 Ry
     estimated scf accuracy    <       0.20864103 Ry

     iteration #  8     ecut=    25.00 Ry     beta= 0.70
     Davidson diagonalization with overlap
     ethr =  7.35E-06,  avg # of iterations = 16.5

     negative rho (up, down):  3.080E+00 0.000E+00

     total cpu time spent up to now is      608.8 secs

     total energy              =  -11427.08886748 Ry
     estimated scf accuracy    <       0.09436913 Ry

     iteration #  9     ecut=    25.00 Ry     beta= 0.70
     Davidson diagonalization with overlap
     ethr =  7.35E-06,  avg # of iterations =  3.0

     negative rho (up, down):  3.082E+00 0.000E+00

     total cpu time spent up to now is      647.7 secs

     total energy              =  -11427.09315773 Ry
     estimated scf accuracy    <       0.01256086 Ry

     iteration # 10     ecut=    25.00 Ry     beta= 0.70
     Davidson diagonalization with overlap
     ethr =  1.02E-06,  avg # of iterations =  8.0

     negative rho (up, down):  3.083E+00 0.000E+00

     total cpu time spent up to now is      695.0 secs

     total energy              =  -11427.09344286 Ry
     estimated scf accuracy    <       0.00457630 Ry

     iteration # 11     ecut=    25.00 Ry     beta= 0.70
     Davidson diagonalization with overlap
     ethr =  3.71E-07,  avg # of iterations =  2.0

     negative rho (up, down):  3.083E+00 0.000E+00

     total cpu time spent up to now is      735.8 secs

     total energy              =  -11427.09372322 Ry
     estimated scf accuracy    <       0.00199560 Ry

     iteration # 12     ecut=    25.00 Ry     beta= 0.70
     Davidson diagonalization with overlap
     ethr =  1.62E-07,  avg # of iterations =  2.0

     negative rho (up, down):  3.084E+00 0.000E+00

     total cpu time spent up to now is      773.1 secs

     total energy              =  -11427.09391918 Ry
     estimated scf accuracy    <       0.00091027 Ry

     iteration # 13     ecut=    25.00 Ry     beta= 0.70
     Davidson diagonalization with overlap
     ethr =  7.39E-08,  avg # of iterations =  1.0

     negative rho (up, down):  3.084E+00 0.000E+00

     total cpu time spent up to now is      807.3 secs

     total energy              =  -11427.09387041 Ry
     estimated scf accuracy    <       0.00210867 Ry

     iteration # 14     ecut=    25.00 Ry     beta= 0.70
     Davidson diagonalization with overlap
     ethr =  7.39E-08,  avg # of iterations =  1.0

     negative rho (up, down):  3.084E+00 0.000E+00

     total cpu time spent up to now is      841.6 secs

     total energy              =  -11427.09396196 Ry
     estimated scf accuracy    <       0.00073085 Ry

     iteration # 15     ecut=    25.00 Ry     beta= 0.70
     Davidson diagonalization with overlap
     ethr =  5.93E-08,  avg # of iterations =  1.0

     negative rho (up, down):  3.084E+00 0.000E+00

     total cpu time spent up to now is      875.9 secs

     total energy              =  -11427.09398083 Ry
     estimated scf accuracy    <       0.00068297 Ry

     iteration # 16     ecut=    25.00 Ry     beta= 0.70
     Davidson diagonalization with overlap
     ethr =  5.54E-08,  avg # of iterations =  1.0

     negative rho (up, down):  3.084E+00 0.000E+00

     total cpu time spent up to now is      910.2 secs

     total energy              =  -11427.09401374 Ry
     estimated scf accuracy    <       0.00009046 Ry

     iteration # 17     ecut=    25.00 Ry     beta= 0.70
     Davidson diagonalization with overlap
     ethr =  7.34E-09,  avg # of iterations =  1.0

     negative rho (up, down):  3.085E+00 0.000E+00

     total cpu time spent up to now is      944.5 secs

     total energy              =  -11427.09401981 Ry
     estimated scf accuracy    <       0.00001406 Ry

     iteration # 18     ecut=    25.00 Ry     beta= 0.70
     Davidson diagonalization with overlap
     ethr =  1.14E-09,  avg # of iterations =  2.0

     negative rho (up, down):  3.085E+00 0.000E+00

     total cpu time spent up to now is      983.7 secs

     total energy              =  -11427.09402105 Ry
     estimated scf accuracy    <       0.00000546 Ry

     iteration # 19     ecut=    25.00 Ry     beta= 0.70
     Davidson diagonalization with overlap
     ethr =  4.43E-10,  avg # of iterations =  2.0

     negative rho (up, down):  3.085E+00 0.000E+00

     total cpu time spent up to now is     1021.8 secs

     total energy              =  -11427.09402075 Ry
     estimated scf accuracy    <       0.00001696 Ry

     iteration # 20     ecut=    25.00 Ry     beta= 0.70
     Davidson diagonalization with overlap
     ethr =  4.43E-10,  avg # of iterations =  1.0

     negative rho (up, down):  3.085E+00 0.000E+00

     total cpu time spent up to now is     1056.0 secs

     total energy              =  -11427.09402155 Ry
     estimated scf accuracy    <       0.00000687 Ry

     iteration # 21     ecut=    25.00 Ry     beta= 0.70
     Davidson diagonalization with overlap
     ethr =  4.43E-10,  avg # of iterations =  1.0

     negative rho (up, down):  3.085E+00 0.000E+00

     total cpu time spent up to now is     1090.1 secs

     End of self-consistent calculation

          k = 0.2500 0.5057 0.0000 ( 95386 PWs)   bands (ev):

    -8.0049  -7.7855  -7.3696  -7.1565  -6.9590  -6.8866  -6.8076  -6.6748
    -6.6110  -6.2901  -6.2195  -6.1891  -6.1052  -6.0375  -5.9303  -5.9280
    -5.8888  -5.8392  -5.8311  -5.8251  -5.7940  -5.7362  -5.7241  -5.6815
    -5.6676  -5.6497  -5.6455  -5.6403  -5.5499  -5.5386  -5.5311  -5.5228
    -5.5166  -5.5074  -5.4894  -5.4814  -5.4631  -5.4596  -5.4284  -5.3753
    -5.3692  -5.3538  -5.3516  -5.3172  -5.3100  -5.2940  -5.2913  -5.2338
    -5.2328  -5.2328  -5.2284  -5.2185  -5.1998  -5.1788  -5.1555  -5.1448
    -5.1300  -5.1246  -5.1158  -5.1142  -5.1107  -5.1093  -5.0882  -5.0676
    -5.0648  -5.0571  -5.0560  -5.0490  -5.0408  -5.0378  -5.0305  -4.9879
    -4.9822  -4.9670  -4.9639  -4.9482  -4.9343  -4.9325  -4.9290  -4.9270
    -4.9177  -4.9161  -4.9070  -4.9040  -4.8859  -4.8854  -4.8818  -4.8720
    -4.8719  -4.8622  -4.8597  -4.8488  -4.8281  -4.8271  -4.8248  -4.8222
    -4.7419  -4.7394  -4.7377  -4.7369  -4.7330  -4.7256  -4.7212  -4.7210
    -4.7203  -4.7121  -4.6996  -4.6849  -4.6743  -4.6166  -4.6002  -4.5972
    -4.5934  -4.5851  -4.5625  -4.5611  -4.5575  -4.5269  -4.4707  -4.4696
    -4.4510  -4.4138  -4.3980  -4.3952  -4.3936  -4.3933  -4.3918  -4.3854
    -4.3554  -4.3457  -4.3452  -4.3372  -4.3257  -4.3230  -4.3202  -4.3037
    -4.3022  -4.2739  -4.2646  -4.2574  -4.2478  -4.2453  -4.2295  -4.2106
    -4.1938  -4.1680  -4.1562  -4.1551  -4.1546  -4.1532  -4.1483  -4.1396
    -4.1374  -4.1045  -4.0973  -4.0835  -4.0775  -4.0763  -4.0699  -4.0545
    -4.0506  -4.0354  -4.0307  -4.0241  -4.0214  -4.0173  -4.0085  -3.9940
    -3.9868  -3.9708  -3.9587  -3.9276  -3.9141  -3.8986  -3.8932  -3.8897
    -3.8711  -3.8708  -3.8612  -3.8375  -3.8366  -3.8330  -3.8165  -3.8085
    -3.7860  -3.7802  -3.7392  -3.7358  -3.7266  -3.7242  -3.7150  -3.7102
    -3.7010  -3.6853  -3.6808  -3.6712  -3.6590  -3.6405  -3.6193  -3.6192
    -3.6173  -3.6163  -3.6056  -3.6019  -3.5991  -3.5953  -3.5917  -3.5797
    -3.5699  -3.5671  -3.5646  -3.5595  -3.5576  -3.5509  -3.5459  -3.5449
    -3.5436  -3.5343  -3.5236  -3.4923  -3.4823  -3.4563  -3.4541  -3.4430
    -3.4426  -3.4405  -3.4393  -3.4261  -3.4214  -3.4128  -3.4052  -3.3970
    -3.3879  -3.3798  -3.3741  -3.3720  -3.3704  -3.3696  -3.3643  -3.3563
    -3.3526  -3.3374  -3.3357  -3.3269  -3.3261  -3.3245  -3.3200  -3.3171
    -3.3134  -3.3130  -3.3092  -3.3087  -3.2998  -3.2970  -3.2920  -3.2861
    -3.2815  -3.2795  -3.2591  -3.2498  -3.2468  -3.2438  -3.2382  -3.2288
    -3.2197  -3.2189  -3.2142  -3.2103  -3.2022  -3.1998  -3.1890  -3.1806
    -3.1790  -3.1733  -3.1722  -3.1685  -3.1669  -3.1593  -3.1581  -3.1459
    -3.1457  -3.1217  -3.1212  -3.1107  -3.0983  -3.0907  -3.0844  -3.0580
    -3.0414  -3.0400  -3.0345  -3.0333  -3.0262  -3.0240  -3.0231  -3.0181
    -3.0173  -3.0164  -3.0156  -3.0091  -3.0025  -3.0015  -2.9894  -2.9849
    -2.9818  -2.9808  -2.9801  -2.9750  -2.9750  -2.9711  -2.9687  -2.9509
    -2.9152  -2.9131  -2.8901  -2.8759  -2.8742  -2.8624  -2.8598  -2.8494
    -2.8476  -2.8280  -2.8221  -2.8205  -2.7997  -2.7962  -2.7956  -2.7831
    -2.7798  -2.7754  -2.7674  -2.7641  -2.7503  -2.7492  -2.7469  -2.7421
    -2.7233  -2.7225  -2.7207  -2.7180  -2.6629  -2.6544  -2.6462  -2.6367
    -2.6296  -2.6261  -2.6215  -2.5956  -2.5801  -2.5698  -2.5675  -2.5669
    -2.5635  -2.5591  -2.5531  -2.5408  -2.5281  -2.5253  -2.5195  -2.5161
    -2.5091  -2.5072  -2.5011  -2.4929  -2.4900  -2.4864  -2.4805  -2.4793
    -2.4732  -2.4724  -2.4666  -2.4657  -2.4599  -2.4491  -2.4353  -2.4348
    -2.4065  -2.4002  -2.3983  -2.3743  -2.3704  -2.3633  -2.3559  -2.3558
    -2.3488  -2.3453  -2.3356  -2.3325  -2.3153  -2.3004  -2.2929  -2.2720
    -2.2686  -2.2668  -2.2637  -2.2488  -2.2433  -2.2336  -2.2317  -2.2151
    -2.2126  -2.2056  -2.2053  -2.1979  -2.1971  -2.1783  -2.1449  -2.1362
    -2.1305  -2.1059  -2.1024  -2.0848  -2.0675  -2.0485  -2.0475  -2.0442
    -2.0374  -2.0319  -2.0023  -1.9984  -1.9949  -1.9641  -1.9607  -1.9573
    -1.9561  -1.9520  -1.9481  -1.9453  -1.9393  -1.9388  -1.9370  -1.9309
    -1.9300  -1.9276  -1.9171  -1.9123  -1.9079  -1.9021  -1.8647  -1.8557
    -1.8550  -1.8386  -1.8311  -1.8273  -1.8233  -1.8171  -1.8162  -1.8137
    -1.8116  -1.8015  -1.8002  -1.7990  -1.7934  -1.7665  -1.7597  -1.7586
    -1.7575  -1.7484  -1.7432  -1.7425  -1.7366  -1.7366  -1.7267  -1.7239
    -1.7063  -1.7047  -1.6989  -1.6980  -1.6881  -1.6745  -1.6703  -1.6658
    -1.6636  -1.6588  -1.6508  -1.6288  -1.6131  -1.6038  -1.5994  -1.5975
    -1.5792  -1.5760  -1.5755  -1.5740  -1.5602  -1.5448  -1.5044  -1.4992
    -1.4927  -1.4881  -1.4801  -1.4792  -1.4707  -1.4673  -1.4599  -1.4581
    -1.4512  -1.4444  -1.4337  -1.4325  -1.4262  -1.4133  -1.4127  -1.4074
    -1.3997  -1.3817  -1.3718  -1.3685  -1.3630  -1.3581  -1.3455  -1.3397
    -1.3278  -1.3257  -1.3219  -1.3074  -1.3027  -1.2978  -1.2933  -1.2874
    -1.2872  -1.2779  -1.2766  -1.2671  -1.2647  -1.2554  -1.2537  -1.2498
    -1.2417  -1.2398  -1.2280  -1.2277  -1.2200  -1.2194  -1.2192  -1.2190
    -1.2154  -1.2089  -1.2060  -1.1780  -1.1768  -1.1707  -1.1566  -1.1555
    -1.1450  -1.1402  -1.1380  -1.1336  -1.1301  -1.1251  -1.1246  -1.1218
    -1.1190  -1.1076  -1.1060  -1.0986  -1.0875  -1.0829  -1.0801  -1.0781
    -1.0773  -1.0758  -1.0725  -1.0629  -1.0580  -1.0550  -1.0538  -1.0509
    -1.0502  -1.0443  -1.0045  -0.9812  -0.9698  -0.9650  -0.9523  -0.9373
    -0.9360  -0.9294  -0.9246  -0.9208  -0.9162  -0.9078  -0.9004  -0.8821
    -0.8781  -0.8615  -0.8301  -0.8282  -0.8261  -0.7660  -0.6682  -0.6318
    -0.6016  -0.5946  -0.5468  -0.4529  -0.3798  -0.1937  -0.1603  -0.1190
    -0.0036   0.0220   0.0572   0.1551   0.1619   0.1919   0.2705   0.2881
     0.3155   0.3346   0.5886   0.5920   0.6430   0.6718   0.7319   0.7782
     0.8026   0.8034   0.9240   0.9706   0.9831   1.1553   1.1639   1.1983
     1.3017   1.3261   1.3632   1.3875   1.4795   1.5212   1.5256   1.7953
     1.8681   1.8790   1.8971   1.8999   1.9100   1.9751   1.9820   2.0315
     2.0615   2.0733   2.1943   2.4009   2.4062   2.4083   2.4467   2.4513
     2.6431   2.6539   2.6774   2.7098   2.7215   2.7961   2.8416   3.1809
     3.2034   3.2178   3.2816   3.3294   3.3641   3.3778   3.5442   3.5474
     3.5698   3.6168   3.6258   3.7992   3.8063   3.8938   3.9029   4.0003
     4.0225   4.1242   4.1802   4.2438   4.2473   4.2703   4.3017   4.3972
     4.4720   4.4973   4.5209   4.5648   4.6630   4.8051   4.8114   4.8410
     4.8497   4.8523   4.8938   4.9669   4.9889   5.0740   5.0906   5.1944
     5.2014   5.2118   5.2379   5.2618   5.3013   5.4403   5.4932   5.5254
     5.5326   5.5330   5.5443   5.6498   5.6731   5.7195   5.7317   5.8367
     5.8522   5.8738   5.8957   5.9063   5.9063   5.9800   5.9912   6.0158
     6.0171   6.0264   6.0329   6.0422   6.0869   6.1381   6.1418   6.1477
     6.1656   6.2221   6.2292   6.3071   6.4015   6.4092   6.4469   6.4472
     6.4738   6.5148   6.5236   6.5725   6.5877   6.6322   6.6407   6.6539
     6.6608   6.6907   6.7353   6.7481   6.7689   6.8237   6.8288   6.9307
     6.9365   6.9722   6.9726   6.9987   7.0274   7.0635   7.1003   7.1088
     7.1283   7.1636   7.1906   7.1920   7.1998   7.2022   7.2795   7.2909
     7.3065   7.3546   7.3591   7.4024   7.4171   7.4340   7.4641   7.5086
     7.5607   7.5675   7.6062   7.6175   7.6582   7.6583   7.6666   7.6693
     7.6931   7.6938   7.7179   7.7228   7.7376   7.7419   7.7925   7.8309
     7.8580   7.8670   7.8743   7.9408   7.9894   7.9901   8.0016   8.0253

          k =-0.2500 0.5057 0.0000 ( 95386 PWs)   bands (ev):

    -8.0049  -7.7855  -7.3696  -7.1565  -6.9590  -6.8866  -6.8076  -6.6748
    -6.6110  -6.2901  -6.2195  -6.1891  -6.1052  -6.0375  -5.9303  -5.9280
    -5.8888  -5.8392  -5.8311  -5.8251  -5.7940  -5.7362  -5.7241  -5.6815
    -5.6676  -5.6497  -5.6455  -5.6403  -5.5499  -5.5386  -5.5311  -5.5228
    -5.5166  -5.5074  -5.4894  -5.4814  -5.4631  -5.4596  -5.4284  -5.3753
    -5.3692  -5.3539  -5.3516  -5.3172  -5.3100  -5.2940  -5.2913  -5.2338
    -5.2328  -5.2328  -5.2284  -5.2185  -5.1998  -5.1788  -5.1555  -5.1448
    -5.1300  -5.1246  -5.1158  -5.1143  -5.1107  -5.1093  -5.0882  -5.0676
    -5.0648  -5.0571  -5.0560  -5.0490  -5.0408  -5.0378  -5.0305  -4.9879
    -4.9822  -4.9670  -4.9639  -4.9482  -4.9343  -4.9325  -4.9289  -4.9270
    -4.9177  -4.9161  -4.9070  -4.9040  -4.8859  -4.8854  -4.8818  -4.8720
    -4.8720  -4.8622  -4.8597  -4.8488  -4.8281  -4.8271  -4.8248  -4.8222
    -4.7419  -4.7394  -4.7377  -4.7369  -4.7330  -4.7256  -4.7213  -4.7209
    -4.7203  -4.7121  -4.6996  -4.6849  -4.6743  -4.6166  -4.6002  -4.5972
    -4.5934  -4.5851  -4.5625  -4.5611  -4.5575  -4.5269  -4.4707  -4.4696
    -4.4510  -4.4138  -4.3980  -4.3952  -4.3936  -4.3933  -4.3918  -4.3854
    -4.3554  -4.3457  -4.3452  -4.3372  -4.3257  -4.3230  -4.3202  -4.3037
    -4.3022  -4.2739  -4.2646  -4.2574  -4.2478  -4.2453  -4.2295  -4.2106
    -4.1938  -4.1680  -4.1562  -4.1551  -4.1546  -4.1532  -4.1483  -4.1396
    -4.1374  -4.1045  -4.0973  -4.0835  -4.0775  -4.0763  -4.0699  -4.0545
    -4.0506  -4.0354  -4.0307  -4.0241  -4.0214  -4.0173  -4.0085  -3.9940
    -3.9868  -3.9708  -3.9587  -3.9276  -3.9141  -3.8986  -3.8932  -3.8897
    -3.8711  -3.8708  -3.8612  -3.8375  -3.8366  -3.8330  -3.8165  -3.8085
    -3.7860  -3.7802  -3.7392  -3.7358  -3.7266  -3.7242  -3.7150  -3.7102
    -3.7010  -3.6853  -3.6808  -3.6712  -3.6590  -3.6405  -3.6193  -3.6192
    -3.6173  -3.6163  -3.6056  -3.6019  -3.5991  -3.5953  -3.5917  -3.5797
    -3.5699  -3.5671  -3.5646  -3.5595  -3.5576  -3.5509  -3.5459  -3.5449
    -3.5435  -3.5343  -3.5236  -3.4923  -3.4823  -3.4563  -3.4541  -3.4430
    -3.4426  -3.4405  -3.4393  -3.4261  -3.4214  -3.4128  -3.4052  -3.3970
    -3.3879  -3.3798  -3.3741  -3.3720  -3.3704  -3.3696  -3.3643  -3.3563
    -3.3526  -3.3374  -3.3357  -3.3269  -3.3261  -3.3244  -3.3200  -3.3171
    -3.3134  -3.3130  -3.3092  -3.3087  -3.2998  -3.2970  -3.2920  -3.2861
    -3.2815  -3.2795  -3.2591  -3.2497  -3.2468  -3.2438  -3.2382  -3.2288
    -3.2197  -3.2189  -3.2142  -3.2103  -3.2022  -3.1998  -3.1890  -3.1806
    -3.1790  -3.1733  -3.1722  -3.1685  -3.1669  -3.1593  -3.1581  -3.1459
    -3.1457  -3.1217  -3.1212  -3.1107  -3.0983  -3.0907  -3.0844  -3.0580
    -3.0414  -3.0400  -3.0345  -3.0333  -3.0262  -3.0240  -3.0232  -3.0181
    -3.0173  -3.0164  -3.0156  -3.0091  -3.0025  -3.0015  -2.9894  -2.9849
    -2.9819  -2.9807  -2.9800  -2.9750  -2.9750  -2.9711  -2.9687  -2.9509
    -2.9152  -2.9131  -2.8901  -2.8759  -2.8742  -2.8624  -2.8598  -2.8494
    -2.8476  -2.8280  -2.8221  -2.8205  -2.7997  -2.7962  -2.7956  -2.7831
    -2.7798  -2.7754  -2.7674  -2.7641  -2.7503  -2.7492  -2.7469  -2.7421
    -2.7233  -2.7225  -2.7207  -2.7180  -2.6628  -2.6544  -2.6462  -2.6367
    -2.6296  -2.6261  -2.6215  -2.5956  -2.5801  -2.5698  -2.5675  -2.5669
    -2.5636  -2.5591  -2.5532  -2.5408  -2.5281  -2.5253  -2.5195  -2.5161
    -2.5090  -2.5072  -2.5012  -2.4929  -2.4900  -2.4864  -2.4805  -2.4793
    -2.4732  -2.4724  -2.4666  -2.4657  -2.4599  -2.4491  -2.4353  -2.4347
    -2.4065  -2.4002  -2.3983  -2.3743  -2.3704  -2.3633  -2.3559  -2.3558
    -2.3488  -2.3453  -2.3356  -2.3324  -2.3153  -2.3004  -2.2929  -2.2720
    -2.2686  -2.2668  -2.2638  -2.2488  -2.2433  -2.2336  -2.2317  -2.2151
    -2.2126  -2.2056  -2.2053  -2.1979  -2.1971  -2.1783  -2.1449  -2.1362
    -2.1305  -2.1059  -2.1024  -2.0848  -2.0675  -2.0485  -2.0475  -2.0442
    -2.0374  -2.0319  -2.0023  -1.9984  -1.9949  -1.9641  -1.9607  -1.9573
    -1.9561  -1.9520  -1.9481  -1.9453  -1.9393  -1.9388  -1.9370  -1.9310
    -1.9300  -1.9276  -1.9171  -1.9123  -1.9079  -1.9021  -1.8647  -1.8557
    -1.8550  -1.8386  -1.8311  -1.8273  -1.8233  -1.8171  -1.8162  -1.8137
    -1.8116  -1.8015  -1.8002  -1.7990  -1.7934  -1.7665  -1.7596  -1.7586
    -1.7575  -1.7484  -1.7432  -1.7425  -1.7366  -1.7366  -1.7267  -1.7239
    -1.7063  -1.7047  -1.6989  -1.6980  -1.6881  -1.6745  -1.6702  -1.6658
    -1.6636  -1.6588  -1.6508  -1.6288  -1.6131  -1.6038  -1.5994  -1.5975
    -1.5792  -1.5760  -1.5755  -1.5740  -1.5602  -1.5448  -1.5044  -1.4992
    -1.4927  -1.4881  -1.4801  -1.4792  -1.4707  -1.4673  -1.4599  -1.4581
    -1.4512  -1.4444  -1.4337  -1.4325  -1.4262  -1.4133  -1.4127  -1.4074
    -1.3997  -1.3818  -1.3718  -1.3685  -1.3630  -1.3581  -1.3454  -1.3397
    -1.3278  -1.3257  -1.3219  -1.3074  -1.3027  -1.2978  -1.2933  -1.2874
    -1.2872  -1.2779  -1.2766  -1.2671  -1.2647  -1.2554  -1.2537  -1.2498
    -1.2417  -1.2398  -1.2280  -1.2277  -1.2200  -1.2194  -1.2192  -1.2190
    -1.2154  -1.2089  -1.2060  -1.1780  -1.1768  -1.1707  -1.1566  -1.1555
    -1.1450  -1.1402  -1.1380  -1.1336  -1.1301  -1.1251  -1.1246  -1.1218
    -1.1190  -1.1076  -1.1060  -1.0986  -1.0875  -1.0829  -1.0801  -1.0781
    -1.0773  -1.0758  -1.0725  -1.0629  -1.0580  -1.0550  -1.0538  -1.0509
    -1.0502  -1.0443  -1.0045  -0.9812  -0.9698  -0.9650  -0.9523  -0.9374
    -0.9358  -0.9294  -0.9246  -0.9208  -0.9162  -0.9078  -0.9004  -0.8821
    -0.8781  -0.8615  -0.8301  -0.8282  -0.8261  -0.7660  -0.6682  -0.6318
    -0.6016  -0.5946  -0.5468  -0.4529  -0.3798  -0.1937  -0.1603  -0.1190
    -0.0036   0.0220   0.0572   0.1551   0.1619   0.1919   0.2705   0.2881
     0.3155   0.3346   0.5886   0.5920   0.6430   0.6718   0.7319   0.7782
     0.8026   0.8034   0.9239   0.9706   0.9831   1.1553   1.1639   1.1983
     1.3017   1.3261   1.3632   1.3875   1.4795   1.5212   1.5256   1.7953
     1.8681   1.8790   1.8971   1.8999   1.9100   1.9751   1.9820   2.0315
     2.0615   2.0733   2.1943   2.4009   2.4062   2.4083   2.4467   2.4513
     2.6431   2.6539   2.6774   2.7098   2.7215   2.7961   2.8416   3.1809
     3.2034   3.2178   3.2816   3.3294   3.3641   3.3778   3.5442   3.5474
     3.5698   3.6168   3.6258   3.7992   3.8063   3.8938   3.9029   4.0003
     4.0225   4.1242   4.1802   4.2438   4.2473   4.2703   4.3017   4.3972
     4.4720   4.4973   4.5209   4.5648   4.6630   4.8051   4.8114   4.8410
     4.8497   4.8523   4.8938   4.9669   4.9889   5.0740   5.0906   5.1944
     5.2014   5.2118   5.2379   5.2618   5.3013   5.4403   5.4932   5.5254
     5.5326   5.5330   5.5443   5.6498   5.6731   5.7195   5.7317   5.8367
     5.8522   5.8738   5.8957   5.9063   5.9063   5.9800   5.9912   6.0158
     6.0171   6.0264   6.0329   6.0422   6.0869   6.1381   6.1418   6.1477
     6.1656   6.2221   6.2292   6.3071   6.4015   6.4092   6.4469   6.4472
     6.4738   6.5148   6.5236   6.5725   6.5877   6.6322   6.6407   6.6539
     6.6608   6.6907   6.7353   6.7481   6.7689   6.8237   6.8288   6.9307
     6.9365   6.9722   6.9726   6.9987   7.0274   7.0635   7.1003   7.1088
     7.1283   7.1637   7.1906   7.1920   7.1998   7.2022   7.2795   7.2909
     7.3065   7.3546   7.3591   7.4025   7.4171   7.4340   7.4641   7.5086
     7.5607   7.5675   7.6062   7.6175   7.6582   7.6583   7.6666   7.6692
     7.6931   7.6938   7.7179   7.7228   7.7377   7.7419   7.7925   7.8309
     7.8580   7.8670   7.8738   7.9408   7.9895   7.9904   8.0015   8.0253

     the Fermi energy is     0.7844 ev

!    total energy              =  -11427.09402146 Ry
     estimated scf accuracy    <       0.00000051 Ry
     smearing contrib. (-TS)   =       0.06310426 Ry
     internal energy E=F+TS    =  -11427.15712572 Ry

     The total energy is F=E-TS. E is the sum of the following terms:
     one-electron contribution = -129707.75592785 Ry
     hartree contribution      =   65677.94084885 Ry
     xc contribution           =   -5523.82456498 Ry
     ewald contribution        =   58126.48251826 Ry

     convergence has been achieved in  21 iterations

     negative rho (up, down):  3.085E+00 0.000E+00

     Forces acting on atoms (cartesian axes, Ry/au):

     atom    1 type  1   force =    -0.00099448    0.00015399    0.00846713
     atom    2 type  1   force =    -0.00099014   -0.00021050    0.00814779
     atom    3 type  1   force =    -0.00018392    0.00021565    0.00907097
     atom    4 type  1   force =    -0.00018545   -0.00015663    0.00875159
     atom    5 type  1   force =     0.00010790    0.00024578    0.00906797
     atom    6 type  1   force =     0.00011120   -0.00012633    0.00874772
     atom    7 type  1   force =    -0.00010566    0.00022855    0.00897775
     atom    8 type  1   force =    -0.00010201   -0.00014365    0.00865885
     atom    9 type  1   force =     0.00001630    0.00022844    0.00898804
     atom   10 type  1   force =     0.00001266   -0.00014482    0.00866789
     atom   11 type  1   force =    -0.00009670    0.00023959    0.00910306
     atom   12 type  1   force =    -0.00009786   -0.00013403    0.00878230
     atom   13 type  1   force =     0.00088431    0.00026332    0.00893819
     atom   14 type  1   force =     0.00088319   -0.00010935    0.00861718
     atom   15 type  1   force =    -0.00129604    0.00048182   -0.00532002
     atom   16 type  1   force =    -0.00129447   -0.00013595   -0.00542317
     atom   17 type  1   force =    -0.00020449    0.00045112   -0.00531270
     atom   18 type  1   force =    -0.00020527   -0.00017044   -0.00541492
     atom   19 type  1   force =     0.00014713    0.00045536   -0.00530023
     atom   20 type  1   force =     0.00014964   -0.00016383   -0.00540332
     atom   21 type  1   force =    -0.00011579    0.00046424   -0.00532317
     atom   22 type  1   force =    -0.00011450   -0.00016719   -0.00542360
     atom   23 type  1   force =     0.00003961    0.00046282   -0.00534407
     atom   24 type  1   force =     0.00003785   -0.00016385   -0.00544694
     atom   25 type  1   force =    -0.00015924    0.00045637   -0.00537389
     atom   26 type  1   force =    -0.00015982   -0.00017193   -0.00547735
     atom   27 type  1   force =     0.00108797    0.00045459   -0.00533156
     atom   28 type  1   force =     0.00108862   -0.00016835   -0.00543473
     atom   29 type  1   force =    -0.00063446   -0.00005168    0.00865086
     atom   30 type  1   force =    -0.00063568   -0.00055253    0.00870668
     atom   31 type  1   force =    -0.00003681   -0.00007680    0.00881992
     atom   32 type  1   force =    -0.00003673   -0.00057444    0.00887599
     atom   33 type  1   force =     0.00013594   -0.00008334    0.00870681
     atom   34 type  1   force =     0.00013673   -0.00058676    0.00876165
     atom   35 type  1   force =    -0.00006264   -0.00007009    0.00873056
     atom   36 type  1   force =    -0.00006306   -0.00057525    0.00878587
     atom   37 type  1   force =    -0.00017555   -0.00007941    0.00873282
     atom   38 type  1   force =    -0.00017716   -0.00058031    0.00878793
     atom   39 type  1   force =     0.00017471   -0.00008508    0.00883748
     atom   40 type  1   force =     0.00017438   -0.00058699    0.00889333
     atom   41 type  1   force =     0.00097163   -0.00016798    0.00815486
     atom   42 type  1   force =     0.00097550   -0.00066524    0.00820870
     atom   43 type  1   force =    -0.00079389   -0.00007468   -0.00533644
     atom   44 type  1   force =    -0.00079324   -0.00065787   -0.00528957
     atom   45 type  1   force =    -0.00002283   -0.00007567   -0.00535151
     atom   46 type  1   force =    -0.00002629   -0.00065947   -0.00530315
     atom   47 type  1   force =     0.00019392   -0.00006510   -0.00534796
     atom   48 type  1   force =     0.00019344   -0.00065355   -0.00530212
     atom   49 type  1   force =    -0.00005681   -0.00006607   -0.00537750
     atom   50 type  1   force =    -0.00005453   -0.00065860   -0.00533238
     atom   51 type  1   force =    -0.00021707   -0.00006841   -0.00540414
     atom   52 type  1   force =    -0.00021646   -0.00065246   -0.00535720
     atom   53 type  1   force =     0.00017523   -0.00007884   -0.00541609
     atom   54 type  1   force =     0.00017394   -0.00066746   -0.00536831
     atom   55 type  1   force =     0.00122295   -0.00003716   -0.00538160
     atom   56 type  1   force =     0.00122860   -0.00061486   -0.00533504
     atom   57 type  1   force =    -0.00105357    0.00069742   -0.00849268
     atom   58 type  1   force =    -0.00105110    0.00022587   -0.00812520
     atom   59 type  1   force =    -0.00020002    0.00065173   -0.00908792
     atom   60 type  1   force =    -0.00020245    0.00017354   -0.00872488
     atom   61 type  1   force =     0.00014627    0.00062149   -0.00908519
     atom   62 type  1   force =     0.00014818    0.00014308   -0.00871789
     atom   63 type  1   force =    -0.00004260    0.00063662   -0.00899519
     atom   64 type  1   force =    -0.00003860    0.00016037   -0.00862999
     atom   65 type  1   force =     0.00004984    0.00063761   -0.00901419
     atom   66 type  1   force =     0.00004728    0.00016151   -0.00864884
     atom   67 type  1   force =    -0.00010949    0.00062782   -0.00913725
     atom   68 type  1   force =    -0.00010986    0.00015021   -0.00877056
     atom   69 type  1   force =     0.00083948    0.00060255   -0.00896878
     atom   70 type  1   force =     0.00083643    0.00012492   -0.00860358
     atom   71 type  1   force =    -0.00080862    0.00080483    0.00519678
     atom   72 type  1   force =    -0.00081115    0.00018051    0.00537730
     atom   73 type  1   force =    -0.00002200    0.00080654    0.00523060
     atom   74 type  1   force =    -0.00001942    0.00018357    0.00540915
     atom   75 type  1   force =     0.00021728    0.00079882    0.00519139
     atom   76 type  1   force =     0.00021956    0.00017490    0.00537123
     atom   77 type  1   force =    -0.00002704    0.00080266    0.00514540
     atom   78 type  1   force =    -0.00002740    0.00017870    0.00532264
     atom   79 type  1   force =    -0.00020688    0.00079891    0.00514743
     atom   80 type  1   force =    -0.00020864    0.00017719    0.00532550
     atom   81 type  1   force =     0.00014927    0.00081224    0.00516822
     atom   82 type  1   force =     0.00015061    0.00018759    0.00534804
     atom   83 type  1   force =     0.00119669    0.00076051    0.00517012
     atom   84 type  1   force =     0.00119142    0.00014278    0.00535041
     atom   85 type  1   force =    -0.00132048    0.00011070    0.00535280
     atom   86 type  1   force =    -0.00132513   -0.00080861    0.00552584
     atom   87 type  1   force =    -0.00020731    0.00014296    0.00540180
     atom   88 type  1   force =    -0.00020598   -0.00078043    0.00557459
     atom   89 type  1   force =     0.00016305    0.00013893    0.00537941
     atom   90 type  1   force =     0.00016443   -0.00078580    0.00555204
     atom   91 type  1   force =    -0.00008791    0.00013809    0.00533528
     atom   92 type  1   force =    -0.00008965   -0.00079475    0.00550847
     atom   93 type  1   force =     0.00005523    0.00013777    0.00531256
     atom   94 type  1   force =     0.00005665   -0.00079245    0.00548605
     atom   95 type  1   force =    -0.00016071    0.00014326    0.00532504
     atom   96 type  1   force =    -0.00016168   -0.00078293    0.00549828
     atom   97 type  1   force =     0.00105977    0.00014266    0.00532174
     atom   98 type  1   force =     0.00106036   -0.00078428    0.00549441
     atom   99 type  1   force =    -0.00067652    0.00016360   -0.00861004
     atom  100 type  1   force =    -0.00067716   -0.00034043   -0.00867854
     atom  101 type  1   force =    -0.00002811    0.00018741   -0.00877872
     atom  102 type  1   force =    -0.00002757   -0.00031461   -0.00884766
     atom  103 type  1   force =     0.00019074    0.00019808   -0.00866154
     atom  104 type  1   force =     0.00019265   -0.00030856   -0.00872999
     atom  105 type  1   force =    -0.00000962    0.00018437   -0.00868807
     atom  106 type  1   force =    -0.00001038   -0.00032657   -0.00875604
     atom  107 type  1   force =    -0.00016406    0.00019377   -0.00870355
     atom  108 type  1   force =    -0.00016499   -0.00031321   -0.00877253
     atom  109 type  1   force =     0.00014079    0.00019872   -0.00881263
     atom  110 type  1   force =     0.00013968   -0.00030515   -0.00888015
     atom  111 type  1   force =     0.00091138    0.00028354   -0.00811959
     atom  112 type  1   force =     0.00091478   -0.00021932   -0.00818855

     Total force =     0.077034     Total SCF correction =     0.004287
     Message from routine punch:
     Nothing written, as per user request (disk_io='none')
 
     init_run     :    474.18s CPU     18.31s WALL (       1 calls)
     electrons    :  27598.90s CPU   1071.68s WALL (       1 calls)
     forces       :    134.92s CPU      5.14s WALL (       1 calls)

     Called by init_run:
     wfcinit      :    439.14s CPU     15.87s WALL (       1 calls)
     potinit      :     15.39s CPU      0.53s WALL (       1 calls)
     hinit0       :      6.12s CPU      0.25s WALL (       1 calls)

     Called by electrons:
     c_bands      :  22226.64s CPU    866.47s WALL (      22 calls)
     sum_band     :   4709.15s CPU    169.35s WALL (      22 calls)
     v_of_rho     :    259.68s CPU      8.62s WALL (      22 calls)
     newd         :    304.12s CPU     24.68s WALL (      22 calls)
     mix_rho      :     84.25s CPU      2.74s WALL (      22 calls)

     Called by c_bands:
     init_us_2    :    254.34s CPU      8.98s WALL (      45 calls)
     cegterg      :  22029.73s CPU    847.80s WALL (      22 calls)

     Called by *egterg:
     cdiaghg      :   1899.14s CPU    195.38s WALL (     137 calls)
     h_psi        :  14165.50s CPU    458.17s WALL (     139 calls)
     s_psi        :   1415.70s CPU     44.67s WALL (     139 calls)
     g_psi        :      9.37s CPU      0.30s WALL (     116 calls)

     Called by h_psi:
     h_psi:calbec :   1093.92s CPU     34.76s WALL (     139 calls)
     vloc_psi     :  11577.14s CPU    375.36s WALL (     139 calls)
     add_vuspsi   :   1466.92s CPU     46.60s WALL (     139 calls)

     General routines
     calbec       :   1581.48s CPU     50.27s WALL (     165 calls)
     fft          :    194.76s CPU      6.48s WALL (     296 calls)
     ffts         :     11.13s CPU      0.36s WALL (      44 calls)
     fftw         :   9462.79s CPU    305.35s WALL (   99888 calls)
     interpolate  :     24.44s CPU      0.79s WALL (      22 calls)
 
     Parallel routines
 
     PWSCF        :      7h50m CPU  18m15.30s WALL

 
   This run was terminated on:  21:29:44  28Feb2025            

=------------------------------------------------------------------------------=
   JOB DONE.
=------------------------------------------------------------------------------=
