
     Program PWSCF v.7.3.1 starts on 26Feb2025 at 17:57:17 

     This program is part of the open-source Quantum ESPRESSO suite
     for quantum simulation of materials; please cite
         "P. Giannozzi et al., J. Phys.:Condens. Matter 21 395502 (2009);
         "P. Giannozzi et al., J. Phys.:Condens. Matter 29 465901 (2017);
         "P. Giannozzi et al., J. Chem. Phys. 152 154105 (2020);
          URL http://www.quantum-espresso.org", 
     in publications or presentations arising from this work. More details at
     http://www.quantum-espresso.org/quote

     Parallel version (MPI), running on   256 processors

     MPI processes distributed on     2 nodes
     212381 MiB available memory on the printing compute node when the environment starts
 
     Reading input from pw.in

     Current dimensions of program PWSCF are:
     Max number of different atomic species (ntypx) = 10
     Max number of k-points (npk) =  40000
     Max angular momentum in pseudopotentials (lmaxx) =  4
 
     K-points division:     npool     =       2
     R & G space division:  proc/nbgrp/npool/nimage =     128
     Subspace diagonalization in iterative solution of the eigenvalue problem:
     a serial algorithm will be used

 
     Parallelization info
     --------------------
     sticks:   dense  smooth     PW     G-vecs:    dense   smooth      PW
     Min          92      46     12                16856     5958     776
     Max          93      47     13                16869     5969     792
     Sum       11837    5915   1537              2158381   763307  100747
 
     Using Slab Decomposition
 

     Title: 
      DEISA pw benchmark                                                        


     bravais-lattice index     =            8
     lattice parameter (alat)  =      38.7583  a.u.
     unit-cell volume          =   45191.4962 (a.u.)^3
     number of atoms/cell      =          112
     number of atomic types    =            1
     number of electrons       =      1232.00
     number of Kohn-Sham states=          800
     kinetic-energy cutoff     =      25.0000  Ry
     charge density cutoff     =     200.0000  Ry
     scf convergence threshold =      1.0E-06
     mixing beta               =       0.7000
     number of iterations used =            8  plain     mixing
     Exchange-correlation=  SLA  PW   PBE  PBE
                           (   1   4   3   4   0   0   0)

     celldm(1)=  38.758300  celldm(2)=   0.494393  celldm(3)=   1.569966
     celldm(4)=   0.000000  celldm(5)=   0.000000  celldm(6)=   0.000000

     crystal axes: (cart. coord. in units of alat)
               a(1) = (   1.000000   0.000000   0.000000 )  
               a(2) = (   0.000000   0.494393   0.000000 )  
               a(3) = (   0.000000   0.000000   1.569966 )  

     reciprocal axes: (cart. coord. in units 2 pi/alat)
               b(1) = (  1.000000  0.000000  0.000000 )  
               b(2) = (  0.000000  2.022682  0.000000 )  
               b(3) = (  0.000000  0.000000  0.636956 )  


     PseudoPot. # 1 for Au read from file:
     ./Au.pbe-nd-van.UPF
     MD5 check sum: deb5c07af10777505a79e28f5b4b4115
     Pseudo is Ultrasoft + core correction, Zval = 11.0
     Generated by new atomic code, or converted to UPF format
     Using radial grid of  985 points,  3 beta functions with: 
                l(1) =   1
                l(2) =   2
                l(3) =   2
     Q(r) pseudized with  8 coefficients,  rinner =    1.100   1.100   1.100
                                                       1.100   1.100

     atomic species   valence    mass     pseudopotential
     AU               11.00   196.96000     Au( 1.00)

     No symmetry found



   Cartesian axes

     site n.     atom                  positions (alat units)
         1        AU     tau(   1) = (   1.4278394   1.9784974   0.3497317  )
         2        AU     tau(   2) = (   1.4278394   1.7313986   0.3497317  )
         3        AU     tau(   3) = (   1.5706478   1.9784974   0.3497317  )
         4        AU     tau(   4) = (   1.5706478   1.7313986   0.3497317  )
         5        AU     tau(   5) = (   1.7134072   1.9784974   0.3497317  )
         6        AU     tau(   6) = (   1.7134072   1.7313986   0.3497317  )
         7        AU     tau(   7) = (   1.8562156   1.9784974   0.3497317  )
         8        AU     tau(   8) = (   1.8562156   1.7313986   0.3497317  )
         9        AU     tau(   9) = (   1.9989753   1.9784974   0.3497317  )
        10        AU     tau(  10) = (   1.9989753   1.7313986   0.3497317  )
        11        AU     tau(  11) = (   2.1417836   1.9784974   0.3497317  )
        12        AU     tau(  12) = (   2.1417836   1.7313986   0.3497317  )
        13        AU     tau(  13) = (   2.2845431   1.9784974   0.3497317  )
        14        AU     tau(  14) = (   2.2845431   1.7313986   0.3497317  )
        15        AU     tau(  15) = (   1.4278394   2.0609450   0.2331545  )
        16        AU     tau(  16) = (   1.4278394   1.8138461   0.2331545  )
        17        AU     tau(  17) = (   1.5706478   2.0609450   0.2331545  )
        18        AU     tau(  18) = (   1.5706478   1.8138461   0.2331545  )
        19        AU     tau(  19) = (   1.7134072   2.0609450   0.2331545  )
        20        AU     tau(  20) = (   1.7134072   1.8138461   0.2331545  )
        21        AU     tau(  21) = (   1.8562156   2.0609450   0.2331545  )
        22        AU     tau(  22) = (   1.8562156   1.8138461   0.2331545  )
        23        AU     tau(  23) = (   1.9989753   2.0609450   0.2331545  )
        24        AU     tau(  24) = (   1.9989753   1.8138461   0.2331545  )
        25        AU     tau(  25) = (   2.1417836   2.0609450   0.2331545  )
        26        AU     tau(  26) = (   2.1417836   1.8138461   0.2331545  )
        27        AU     tau(  27) = (   2.2845431   2.0609450   0.2331545  )
        28        AU     tau(  28) = (   2.2845431   1.8138461   0.2331545  )
        29        AU     tau(  29) = (   1.4992193   2.1021445   0.3497317  )
        30        AU     tau(  30) = (   1.4992193   1.8550455   0.3497317  )
        31        AU     tau(  31) = (   1.6420276   2.1021445   0.3497317  )
        32        AU     tau(  32) = (   1.6420276   1.8550455   0.3497317  )
        33        AU     tau(  33) = (   1.7847871   2.1021445   0.3497317  )
        34        AU     tau(  34) = (   1.7847871   1.8550455   0.3497317  )
        35        AU     tau(  35) = (   1.9275954   2.1021445   0.3497317  )
        36        AU     tau(  36) = (   1.9275954   1.8550455   0.3497317  )
        37        AU     tau(  37) = (   2.0704038   2.1021445   0.3497317  )
        38        AU     tau(  38) = (   2.0704038   1.8550455   0.3497317  )
        39        AU     tau(  39) = (   2.2131632   2.1021445   0.3497317  )
        40        AU     tau(  40) = (   2.2131632   1.8550455   0.3497317  )
        41        AU     tau(  41) = (   2.3559716   2.1021445   0.3497317  )
        42        AU     tau(  42) = (   2.3559716   1.8550455   0.3497317  )
        43        AU     tau(  43) = (   1.4992193   1.6901992   0.2331545  )
        44        AU     tau(  44) = (   1.4992193   1.9374930   0.2331545  )
        45        AU     tau(  45) = (   1.6420276   1.6901992   0.2331545  )
        46        AU     tau(  46) = (   1.6420276   1.9374930   0.2331545  )
        47        AU     tau(  47) = (   1.7847871   1.6901992   0.2331545  )
        48        AU     tau(  48) = (   1.7847871   1.9374930   0.2331545  )
        49        AU     tau(  49) = (   1.9275954   1.6901992   0.2331545  )
        50        AU     tau(  50) = (   1.9275954   1.9374930   0.2331545  )
        51        AU     tau(  51) = (   2.0704038   1.6901992   0.2331545  )
        52        AU     tau(  52) = (   2.0704038   1.9374930   0.2331545  )
        53        AU     tau(  53) = (   2.2131632   1.6901992   0.2331545  )
        54        AU     tau(  54) = (   2.2131632   1.9374930   0.2331545  )
        55        AU     tau(  55) = (   2.3559716   1.6901992   0.2331545  )
        56        AU     tau(  56) = (   2.3559716   1.9374930   0.2331545  )
        57        AU     tau(  57) = (   1.4278394   1.9784974   0.0000000  )
        58        AU     tau(  58) = (   1.4278394   1.7313986   0.0000000  )
        59        AU     tau(  59) = (   1.5706478   1.9784974   0.0000000  )
        60        AU     tau(  60) = (   1.5706478   1.7313986   0.0000000  )
        61        AU     tau(  61) = (   1.7134072   1.9784974   0.0000000  )
        62        AU     tau(  62) = (   1.7134072   1.7313986   0.0000000  )
        63        AU     tau(  63) = (   1.8562156   1.9784974   0.0000000  )
        64        AU     tau(  64) = (   1.8562156   1.7313986   0.0000000  )
        65        AU     tau(  65) = (   1.9989753   1.9784974   0.0000000  )
        66        AU     tau(  66) = (   1.9989753   1.7313986   0.0000000  )
        67        AU     tau(  67) = (   2.1417836   1.9784974   0.0000000  )
        68        AU     tau(  68) = (   2.1417836   1.7313986   0.0000000  )
        69        AU     tau(  69) = (   2.2845431   1.9784974   0.0000000  )
        70        AU     tau(  70) = (   2.2845431   1.7313986   0.0000000  )
        71        AU     tau(  71) = (   1.4992193   2.0196968   0.1165772  )
        72        AU     tau(  72) = (   1.4992193   1.7725979   0.1165772  )
        73        AU     tau(  73) = (   1.6420276   2.0196968   0.1165772  )
        74        AU     tau(  74) = (   1.6420276   1.7725979   0.1165772  )
        75        AU     tau(  75) = (   1.7847871   2.0196968   0.1165772  )
        76        AU     tau(  76) = (   1.7847871   1.7725979   0.1165772  )
        77        AU     tau(  77) = (   1.9275954   2.0196968   0.1165772  )
        78        AU     tau(  78) = (   1.9275954   1.7725979   0.1165772  )
        79        AU     tau(  79) = (   2.0704038   2.0196968   0.1165772  )
        80        AU     tau(  80) = (   2.0704038   1.7725979   0.1165772  )
        81        AU     tau(  81) = (   2.2131632   2.0196968   0.1165772  )
        82        AU     tau(  82) = (   2.2131632   1.7725979   0.1165772  )
        83        AU     tau(  83) = (   2.3559716   2.0196968   0.1165772  )
        84        AU     tau(  84) = (   2.3559716   1.7725979   0.1165772  )
        85        AU     tau(  85) = (   1.4278394   2.1433437   0.1165772  )
        86        AU     tau(  86) = (   1.4278394   1.8962937   0.1165772  )
        87        AU     tau(  87) = (   1.5706478   2.1433437   0.1165772  )
        88        AU     tau(  88) = (   1.5706478   1.8962937   0.1165772  )
        89        AU     tau(  89) = (   1.7134072   2.1433437   0.1165772  )
        90        AU     tau(  90) = (   1.7134072   1.8962937   0.1165772  )
        91        AU     tau(  91) = (   1.8562156   2.1433437   0.1165772  )
        92        AU     tau(  92) = (   1.8562156   1.8962937   0.1165772  )
        93        AU     tau(  93) = (   1.9989753   2.1433437   0.1165772  )
        94        AU     tau(  94) = (   1.9989753   1.8962937   0.1165772  )
        95        AU     tau(  95) = (   2.1417836   2.1433437   0.1165772  )
        96        AU     tau(  96) = (   2.1417836   1.8962937   0.1165772  )
        97        AU     tau(  97) = (   2.2845431   2.1433437   0.1165772  )
        98        AU     tau(  98) = (   2.2845431   1.8962937   0.1165772  )
        99        AU     tau(  99) = (   1.4992193   2.1021445   0.0000000  )
       100        AU     tau( 100) = (   1.4992193   1.8550455   0.0000000  )
       101        AU     tau( 101) = (   1.6420276   2.1021445   0.0000000  )
       102        AU     tau( 102) = (   1.6420276   1.8550455   0.0000000  )
       103        AU     tau( 103) = (   1.7847871   2.1021445   0.0000000  )
       104        AU     tau( 104) = (   1.7847871   1.8550455   0.0000000  )
       105        AU     tau( 105) = (   1.9275954   2.1021445   0.0000000  )
       106        AU     tau( 106) = (   1.9275954   1.8550455   0.0000000  )
       107        AU     tau( 107) = (   2.0704038   2.1021445   0.0000000  )
       108        AU     tau( 108) = (   2.0704038   1.8550455   0.0000000  )
       109        AU     tau( 109) = (   2.2131632   2.1021445   0.0000000  )
       110        AU     tau( 110) = (   2.2131632   1.8550455   0.0000000  )
       111        AU     tau( 111) = (   2.3559716   2.1021445   0.0000000  )
       112        AU     tau( 112) = (   2.3559716   1.8550455   0.0000000  )

     number of k points=     2  Marzari-Vanderbilt smearing, width (Ry)=  0.0500
                       cart. coord. in units 2pi/alat
        k(    1) = (   0.2500000   0.5056706   0.0000000), wk =   1.0000000
        k(    2) = (  -0.2500000   0.5056706   0.0000000), wk =   1.0000000

     Dense  grid:  2158381 G-vectors     FFT dimensions: ( 180,  90, 288)

     Smooth grid:   763307 G-vectors     FFT dimensions: ( 125,  64, 200)

     Estimated max dynamical RAM per process >     225.76 MB

     Estimated total dynamical RAM >      55.93 GB

     Initial potential from superposition of free atoms

     starting charge    1230.6995, renormalised to    1232.0000

     negative rho (up, down):  3.043E+00 0.000E+00
     Starting wfcs are 1008 randomized atomic wfcs

     total cpu time spent up to now is       13.4 secs

     Self-consistent Calculation

     iteration #  1     ecut=    25.00 Ry     beta= 0.70
     Davidson diagonalization with overlap
     ethr =  1.00E-02,  avg # of iterations =  5.0

     Threshold (ethr) on eigenvalues was too large:
     Diagonalizing with lowered threshold

     Davidson diagonalization with overlap
     ethr =  4.37E-04,  avg # of iterations = 20.0

     negative rho (up, down):  2.992E+00 0.000E+00

     total cpu time spent up to now is      115.9 secs

     total energy              =  -11423.48983951 Ry
     estimated scf accuracy    <       6.31650265 Ry

     iteration #  2     ecut=    25.00 Ry     beta= 0.70
     Davidson diagonalization with overlap
     ethr =  5.13E-04,  avg # of iterations = 14.0

     negative rho (up, down):  2.993E+00 0.000E+00

     total cpu time spent up to now is      193.3 secs

     total energy              =  -11408.38288701 Ry
     estimated scf accuracy    <     196.13968303 Ry

     iteration #  3     ecut=    25.00 Ry     beta= 0.70
     Davidson diagonalization with overlap
     ethr =  5.13E-04,  avg # of iterations = 10.5

     negative rho (up, down):  3.038E+00 0.000E+00

     total cpu time spent up to now is      259.6 secs

     total energy              =  -11426.41232100 Ry
     estimated scf accuracy    <       5.02910377 Ry

     iteration #  4     ecut=    25.00 Ry     beta= 0.70
     Davidson diagonalization with overlap
     ethr =  4.08E-04,  avg # of iterations =  2.0

     negative rho (up, down):  3.046E+00 0.000E+00

     total cpu time spent up to now is      280.3 secs

     total energy              =  -11426.62815605 Ry
     estimated scf accuracy    <       4.17423097 Ry

     iteration #  5     ecut=    25.00 Ry     beta= 0.70
     Davidson diagonalization with overlap
     ethr =  3.39E-04,  avg # of iterations =  2.0

     negative rho (up, down):  3.061E+00 0.000E+00

     total cpu time spent up to now is      301.1 secs

     total energy              =  -11426.86583984 Ry
     estimated scf accuracy    <       4.92873529 Ry

     iteration #  6     ecut=    25.00 Ry     beta= 0.70
     Davidson diagonalization with overlap
     ethr =  3.39E-04,  avg # of iterations =  1.0

     negative rho (up, down):  3.070E+00 0.000E+00

     total cpu time spent up to now is      319.3 secs

     total energy              =  -11427.08063987 Ry
     estimated scf accuracy    <       0.09109133 Ry

     iteration #  7     ecut=    25.00 Ry     beta= 0.70
     Davidson diagonalization with overlap
     c_bands:  2 eigenvalues not converged
     ethr =  7.39E-06,  avg # of iterations = 17.0

     negative rho (up, down):  3.078E+00 0.000E+00

     total cpu time spent up to now is      429.5 secs

     total energy              =  -11427.06980901 Ry
     estimated scf accuracy    <       0.24714370 Ry

     iteration #  8     ecut=    25.00 Ry     beta= 0.70
     Davidson diagonalization with overlap
     ethr =  7.39E-06,  avg # of iterations = 10.5

     negative rho (up, down):  3.080E+00 0.000E+00

     total cpu time spent up to now is      472.7 secs

     total energy              =  -11427.07721020 Ry
     estimated scf accuracy    <       0.40771158 Ry

     iteration #  9     ecut=    25.00 Ry     beta= 0.70
     Davidson diagonalization with overlap
     ethr =  7.39E-06,  avg # of iterations =  8.0

     negative rho (up, down):  3.082E+00 0.000E+00

     total cpu time spent up to now is      504.2 secs

     total energy              =  -11427.09330263 Ry
     estimated scf accuracy    <       0.00577597 Ry

     iteration # 10     ecut=    25.00 Ry     beta= 0.70
     Davidson diagonalization with overlap
     ethr =  4.69E-07,  avg # of iterations =  9.5

     negative rho (up, down):  3.083E+00 0.000E+00

     total cpu time spent up to now is      542.9 secs

     total energy              =  -11427.09322433 Ry
     estimated scf accuracy    <       0.00666149 Ry

     iteration # 11     ecut=    25.00 Ry     beta= 0.70
     Davidson diagonalization with overlap
     ethr =  4.69E-07,  avg # of iterations =  2.0

     negative rho (up, down):  3.083E+00 0.000E+00

     total cpu time spent up to now is      562.9 secs

     total energy              =  -11427.09354725 Ry
     estimated scf accuracy    <       0.00404661 Ry

     iteration # 12     ecut=    25.00 Ry     beta= 0.70
     Davidson diagonalization with overlap
     ethr =  3.28E-07,  avg # of iterations =  1.0

     negative rho (up, down):  3.084E+00 0.000E+00

     total cpu time spent up to now is      581.0 secs

     total energy              =  -11427.09394102 Ry
     estimated scf accuracy    <       0.00048005 Ry

     iteration # 13     ecut=    25.00 Ry     beta= 0.70
     Davidson diagonalization with overlap
     ethr =  3.90E-08,  avg # of iterations =  2.0

     negative rho (up, down):  3.084E+00 0.000E+00

     total cpu time spent up to now is      601.5 secs

     total energy              =  -11427.09382673 Ry
     estimated scf accuracy    <       0.00325904 Ry

     iteration # 14     ecut=    25.00 Ry     beta= 0.70
     Davidson diagonalization with overlap
     ethr =  3.90E-08,  avg # of iterations =  2.0

     negative rho (up, down):  3.084E+00 0.000E+00

     total cpu time spent up to now is      621.5 secs

     total energy              =  -11427.09396957 Ry
     estimated scf accuracy    <       0.00048250 Ry

     iteration # 15     ecut=    25.00 Ry     beta= 0.70
     Davidson diagonalization with overlap
     ethr =  3.90E-08,  avg # of iterations =  1.0

     negative rho (up, down):  3.084E+00 0.000E+00

     total cpu time spent up to now is      639.4 secs

     total energy              =  -11427.09396560 Ry
     estimated scf accuracy    <       0.00104042 Ry

     iteration # 16     ecut=    25.00 Ry     beta= 0.70
     Davidson diagonalization with overlap
     ethr =  3.90E-08,  avg # of iterations =  1.0

     negative rho (up, down):  3.084E+00 0.000E+00

     total cpu time spent up to now is      657.2 secs

     total energy              =  -11427.09401101 Ry
     estimated scf accuracy    <       0.00010627 Ry

     iteration # 17     ecut=    25.00 Ry     beta= 0.70
     Davidson diagonalization with overlap
     ethr =  8.63E-09,  avg # of iterations =  2.0

     negative rho (up, down):  3.085E+00 0.000E+00

     total cpu time spent up to now is      677.1 secs

     total energy              =  -11427.09402002 Ry
     estimated scf accuracy    <       0.00001279 Ry

     iteration # 18     ecut=    25.00 Ry     beta= 0.70
     Davidson diagonalization with overlap
     ethr =  1.04E-09,  avg # of iterations =  2.0

     negative rho (up, down):  3.085E+00 0.000E+00

     total cpu time spent up to now is      701.6 secs

     total energy              =  -11427.09402104 Ry
     estimated scf accuracy    <       0.00000355 Ry

     iteration # 19     ecut=    25.00 Ry     beta= 0.70
     Davidson diagonalization with overlap
     ethr =  2.88E-10,  avg # of iterations =  2.0

     negative rho (up, down):  3.085E+00 0.000E+00

     total cpu time spent up to now is      723.2 secs

     total energy              =  -11427.09402036 Ry
     estimated scf accuracy    <       0.00002284 Ry

     iteration # 20     ecut=    25.00 Ry     beta= 0.70
     Davidson diagonalization with overlap
     ethr =  2.88E-10,  avg # of iterations =  2.0

     negative rho (up, down):  3.085E+00 0.000E+00

     total cpu time spent up to now is      743.7 secs

     total energy              =  -11427.09402138 Ry
     estimated scf accuracy    <       0.00000702 Ry

     iteration # 21     ecut=    25.00 Ry     beta= 0.70
     Davidson diagonalization with overlap
     ethr =  2.88E-10,  avg # of iterations =  2.0

     negative rho (up, down):  3.085E+00 0.000E+00

     total cpu time spent up to now is      764.0 secs

     total energy              =  -11427.09402166 Ry
     estimated scf accuracy    <       0.00000122 Ry

     iteration # 22     ecut=    25.00 Ry     beta= 0.70
     Davidson diagonalization with overlap
     ethr =  9.93E-11,  avg # of iterations =  2.0

     negative rho (up, down):  3.085E+00 0.000E+00

     total cpu time spent up to now is      784.4 secs

     End of self-consistent calculation

          k = 0.2500 0.5057 0.0000 ( 95386 PWs)   bands (ev):

    -8.0048  -7.7854  -7.3694  -7.1564  -6.9588  -6.8864  -6.8074  -6.6746
    -6.6108  -6.2900  -6.2193  -6.1890  -6.1050  -6.0373  -5.9302  -5.9279
    -5.8887  -5.8391  -5.8309  -5.8249  -5.7939  -5.7360  -5.7239  -5.6814
    -5.6674  -5.6495  -5.6454  -5.6401  -5.5498  -5.5384  -5.5309  -5.5227
    -5.5164  -5.5072  -5.4891  -5.4812  -5.4629  -5.4594  -5.4282  -5.3751
    -5.3690  -5.3537  -5.3515  -5.3171  -5.3099  -5.2938  -5.2912  -5.2337
    -5.2326  -5.2326  -5.2282  -5.2183  -5.1997  -5.1786  -5.1554  -5.1446
    -5.1298  -5.1244  -5.1156  -5.1141  -5.1105  -5.1092  -5.0880  -5.0675
    -5.0647  -5.0570  -5.0559  -5.0488  -5.0407  -5.0376  -5.0304  -4.9877
    -4.9820  -4.9669  -4.9637  -4.9481  -4.9342  -4.9323  -4.9288  -4.9268
    -4.9176  -4.9159  -4.9068  -4.9039  -4.8858  -4.8853  -4.8817  -4.8718
    -4.8718  -4.8621  -4.8595  -4.8487  -4.8280  -4.8269  -4.8247  -4.8220
    -4.7418  -4.7392  -4.7376  -4.7367  -4.7328  -4.7254  -4.7210  -4.7208
    -4.7201  -4.7120  -4.6994  -4.6847  -4.6741  -4.6165  -4.6000  -4.5970
    -4.5933  -4.5849  -4.5624  -4.5610  -4.5573  -4.5267  -4.4705  -4.4694
    -4.4508  -4.4137  -4.3979  -4.3951  -4.3934  -4.3931  -4.3916  -4.3853
    -4.3553  -4.3456  -4.3450  -4.3370  -4.3255  -4.3229  -4.3201  -4.3035
    -4.3020  -4.2738  -4.2644  -4.2573  -4.2476  -4.2451  -4.2293  -4.2105
    -4.1937  -4.1678  -4.1561  -4.1550  -4.1545  -4.1529  -4.1482  -4.1394
    -4.1372  -4.1044  -4.0971  -4.0834  -4.0773  -4.0761  -4.0698  -4.0543
    -4.0505  -4.0352  -4.0306  -4.0239  -4.0213  -4.0171  -4.0084  -3.9938
    -3.9867  -3.9706  -3.9585  -3.9274  -3.9139  -3.8985  -3.8930  -3.8895
    -3.8709  -3.8706  -3.8610  -3.8373  -3.8365  -3.8329  -3.8164  -3.8083
    -3.7859  -3.7800  -3.7391  -3.7357  -3.7264  -3.7240  -3.7148  -3.7101
    -3.7008  -3.6852  -3.6806  -3.6711  -3.6588  -3.6404  -3.6191  -3.6191
    -3.6172  -3.6161  -3.6054  -3.6017  -3.5990  -3.5951  -3.5916  -3.5796
    -3.5697  -3.5669  -3.5644  -3.5594  -3.5574  -3.5508  -3.5457  -3.5447
    -3.5434  -3.5341  -3.5235  -3.4922  -3.4822  -3.4562  -3.4539  -3.4428
    -3.4424  -3.4404  -3.4391  -3.4259  -3.4213  -3.4126  -3.4050  -3.3969
    -3.3878  -3.3796  -3.3739  -3.3719  -3.3702  -3.3694  -3.3642  -3.3562
    -3.3524  -3.3373  -3.3355  -3.3268  -3.3260  -3.3243  -3.3199  -3.3170
    -3.3133  -3.3129  -3.3090  -3.3085  -3.2996  -3.2968  -3.2918  -3.2860
    -3.2813  -3.2794  -3.2590  -3.2496  -3.2467  -3.2437  -3.2380  -3.2287
    -3.2196  -3.2188  -3.2141  -3.2101  -3.2021  -3.1997  -3.1888  -3.1804
    -3.1789  -3.1731  -3.1720  -3.1683  -3.1668  -3.1591  -3.1580  -3.1458
    -3.1456  -3.1215  -3.1211  -3.1105  -3.0982  -3.0905  -3.0843  -3.0579
    -3.0412  -3.0399  -3.0344  -3.0332  -3.0261  -3.0238  -3.0230  -3.0180
    -3.0172  -3.0162  -3.0155  -3.0090  -3.0023  -3.0014  -2.9892  -2.9848
    -2.9817  -2.9807  -2.9800  -2.9749  -2.9748  -2.9710  -2.9685  -2.9508
    -2.9150  -2.9130  -2.8900  -2.8757  -2.8741  -2.8623  -2.8596  -2.8492
    -2.8475  -2.8279  -2.8219  -2.8204  -2.7996  -2.7961  -2.7955  -2.7830
    -2.7796  -2.7753  -2.7673  -2.7640  -2.7501  -2.7491  -2.7467  -2.7420
    -2.7232  -2.7224  -2.7206  -2.7179  -2.6627  -2.6542  -2.6461  -2.6366
    -2.6295  -2.6260  -2.6214  -2.5955  -2.5800  -2.5697  -2.5673  -2.5668
    -2.5634  -2.5590  -2.5530  -2.5407  -2.5280  -2.5251  -2.5194  -2.5160
    -2.5089  -2.5071  -2.5010  -2.4928  -2.4898  -2.4862  -2.4804  -2.4791
    -2.4731  -2.4723  -2.4664  -2.4656  -2.4597  -2.4490  -2.4352  -2.4346
    -2.4064  -2.4000  -2.3982  -2.3742  -2.3702  -2.3631  -2.3558  -2.3557
    -2.3486  -2.3452  -2.3355  -2.3323  -2.3152  -2.3003  -2.2927  -2.2718
    -2.2685  -2.2666  -2.2636  -2.2487  -2.2432  -2.2335  -2.2316  -2.2150
    -2.2125  -2.2054  -2.2052  -2.1978  -2.1970  -2.1782  -2.1448  -2.1360
    -2.1303  -2.1057  -2.1023  -2.0847  -2.0674  -2.0484  -2.0474  -2.0441
    -2.0373  -2.0318  -2.0022  -1.9982  -1.9947  -1.9640  -1.9606  -1.9572
    -1.9560  -1.9518  -1.9480  -1.9452  -1.9392  -1.9387  -1.9369  -1.9308
    -1.9299  -1.9275  -1.9170  -1.9121  -1.9077  -1.9019  -1.8646  -1.8556
    -1.8549  -1.8385  -1.8309  -1.8272  -1.8231  -1.8170  -1.8160  -1.8135
    -1.8114  -1.8014  -1.8001  -1.7990  -1.7933  -1.7664  -1.7595  -1.7585
    -1.7574  -1.7482  -1.7431  -1.7424  -1.7365  -1.7364  -1.7265  -1.7238
    -1.7062  -1.7046  -1.6988  -1.6979  -1.6880  -1.6744  -1.6701  -1.6657
    -1.6634  -1.6586  -1.6507  -1.6287  -1.6130  -1.6037  -1.5993  -1.5974
    -1.5791  -1.5759  -1.5754  -1.5739  -1.5601  -1.5447  -1.5043  -1.4991
    -1.4926  -1.4880  -1.4799  -1.4790  -1.4706  -1.4672  -1.4598  -1.4580
    -1.4510  -1.4443  -1.4335  -1.4324  -1.4261  -1.4132  -1.4126  -1.4073
    -1.3996  -1.3816  -1.3717  -1.3684  -1.3629  -1.3579  -1.3453  -1.3395
    -1.3277  -1.3256  -1.3218  -1.3073  -1.3025  -1.2976  -1.2932  -1.2872
    -1.2871  -1.2778  -1.2765  -1.2670  -1.2645  -1.2553  -1.2536  -1.2496
    -1.2416  -1.2396  -1.2279  -1.2275  -1.2199  -1.2192  -1.2191  -1.2188
    -1.2153  -1.2087  -1.2059  -1.1779  -1.1766  -1.1706  -1.1565  -1.1553
    -1.1449  -1.1401  -1.1378  -1.1335  -1.1300  -1.1250  -1.1244  -1.1217
    -1.1188  -1.1075  -1.1059  -1.0984  -1.0873  -1.0828  -1.0799  -1.0780
    -1.0771  -1.0757  -1.0724  -1.0628  -1.0579  -1.0549  -1.0536  -1.0508
    -1.0501  -1.0441  -1.0044  -0.9810  -0.9697  -0.9649  -0.9522  -0.9372
    -0.9358  -0.9292  -0.9245  -0.9207  -0.9160  -0.9077  -0.9002  -0.8819
    -0.8780  -0.8614  -0.8300  -0.8280  -0.8259  -0.7658  -0.6681  -0.6316
    -0.6015  -0.5945  -0.5466  -0.4528  -0.3796  -0.1935  -0.1601  -0.1189
    -0.0035   0.0222   0.0573   0.1553   0.1621   0.1920   0.2706   0.2883
     0.3156   0.3347   0.5887   0.5922   0.6431   0.6719   0.7320   0.7783
     0.8027   0.8035   0.9241   0.9707   0.9832   1.1554   1.1640   1.1985
     1.3018   1.3263   1.3633   1.3876   1.4796   1.5213   1.5258   1.7955
     1.8682   1.8791   1.8973   1.9000   1.9101   1.9752   1.9822   2.0315
     2.0616   2.0734   2.1944   2.4011   2.4063   2.4084   2.4469   2.4514
     2.6432   2.6540   2.6776   2.7099   2.7216   2.7962   2.8417   3.1810
     3.2035   3.2179   3.2817   3.3295   3.3642   3.3779   3.5443   3.5476
     3.5700   3.6170   3.6260   3.7993   3.8064   3.8939   3.9030   4.0004
     4.0226   4.1243   4.1804   4.2440   4.2474   4.2705   4.3019   4.3974
     4.4721   4.4974   4.5211   4.5649   4.6631   4.8052   4.8115   4.8411
     4.8499   4.8524   4.8939   4.9670   4.9890   5.0741   5.0907   5.1945
     5.2015   5.2119   5.2381   5.2619   5.3013   5.4403   5.4932   5.5256
     5.5327   5.5331   5.5444   5.6499   5.6730   5.7196   5.7318   5.8368
     5.8523   5.8738   5.8958   5.9063   5.9064   5.9800   5.9913   6.0159
     6.0171   6.0266   6.0328   6.0423   6.0869   6.1382   6.1417   6.1477
     6.1657   6.2222   6.2291   6.3071   6.4016   6.4091   6.4469   6.4474
     6.4737   6.5149   6.5238   6.5725   6.5879   6.6323   6.6406   6.6541
     6.6608   6.6908   6.7354   6.7482   6.7688   6.8236   6.8288   6.9306
     6.9365   6.9722   6.9727   6.9987   7.0275   7.0636   7.1003   7.1088
     7.1285   7.1636   7.1907   7.1920   7.1998   7.2023   7.2796   7.2909
     7.3065   7.3547   7.3592   7.4025   7.4172   7.4339   7.4640   7.5087
     7.5608   7.5676   7.6063   7.6175   7.6581   7.6582   7.6666   7.6694
     7.6929   7.6938   7.7179   7.7229   7.7376   7.7420   7.7924   7.8309
     7.8580   7.8672   7.8736   7.9407   7.9895   7.9902   8.0019   8.0253

          k =-0.2500 0.5057 0.0000 ( 95386 PWs)   bands (ev):

    -8.0048  -7.7854  -7.3694  -7.1564  -6.9588  -6.8864  -6.8074  -6.6746
    -6.6108  -6.2900  -6.2193  -6.1890  -6.1050  -6.0373  -5.9302  -5.9279
    -5.8887  -5.8391  -5.8309  -5.8249  -5.7939  -5.7360  -5.7239  -5.6814
    -5.6674  -5.6495  -5.6454  -5.6401  -5.5498  -5.5384  -5.5309  -5.5227
    -5.5164  -5.5072  -5.4891  -5.4812  -5.4629  -5.4594  -5.4282  -5.3751
    -5.3690  -5.3537  -5.3515  -5.3171  -5.3099  -5.2938  -5.2912  -5.2337
    -5.2326  -5.2326  -5.2282  -5.2183  -5.1997  -5.1786  -5.1554  -5.1446
    -5.1298  -5.1244  -5.1156  -5.1141  -5.1105  -5.1092  -5.0880  -5.0675
    -5.0647  -5.0570  -5.0559  -5.0488  -5.0407  -5.0376  -5.0304  -4.9877
    -4.9820  -4.9669  -4.9637  -4.9481  -4.9342  -4.9323  -4.9288  -4.9268
    -4.9176  -4.9159  -4.9068  -4.9039  -4.8858  -4.8853  -4.8817  -4.8718
    -4.8718  -4.8621  -4.8595  -4.8487  -4.8280  -4.8269  -4.8247  -4.8220
    -4.7418  -4.7392  -4.7376  -4.7367  -4.7328  -4.7254  -4.7211  -4.7207
    -4.7201  -4.7120  -4.6994  -4.6847  -4.6741  -4.6165  -4.6000  -4.5970
    -4.5933  -4.5849  -4.5624  -4.5610  -4.5573  -4.5267  -4.4705  -4.4694
    -4.4508  -4.4137  -4.3979  -4.3951  -4.3934  -4.3931  -4.3916  -4.3853
    -4.3553  -4.3456  -4.3450  -4.3370  -4.3255  -4.3229  -4.3201  -4.3035
    -4.3020  -4.2738  -4.2644  -4.2573  -4.2476  -4.2451  -4.2293  -4.2105
    -4.1937  -4.1678  -4.1561  -4.1550  -4.1545  -4.1530  -4.1482  -4.1394
    -4.1372  -4.1044  -4.0971  -4.0834  -4.0773  -4.0761  -4.0698  -4.0543
    -4.0505  -4.0352  -4.0306  -4.0239  -4.0213  -4.0171  -4.0084  -3.9938
    -3.9867  -3.9706  -3.9585  -3.9274  -3.9139  -3.8985  -3.8930  -3.8895
    -3.8709  -3.8706  -3.8610  -3.8373  -3.8365  -3.8329  -3.8164  -3.8083
    -3.7859  -3.7800  -3.7391  -3.7357  -3.7264  -3.7240  -3.7148  -3.7101
    -3.7008  -3.6852  -3.6806  -3.6711  -3.6588  -3.6404  -3.6191  -3.6191
    -3.6172  -3.6161  -3.6055  -3.6017  -3.5990  -3.5951  -3.5916  -3.5796
    -3.5697  -3.5669  -3.5644  -3.5594  -3.5574  -3.5508  -3.5458  -3.5447
    -3.5434  -3.5341  -3.5235  -3.4922  -3.4822  -3.4562  -3.4539  -3.4428
    -3.4424  -3.4404  -3.4391  -3.4259  -3.4213  -3.4126  -3.4050  -3.3969
    -3.3878  -3.3796  -3.3739  -3.3719  -3.3702  -3.3694  -3.3642  -3.3562
    -3.3524  -3.3373  -3.3355  -3.3268  -3.3260  -3.3243  -3.3198  -3.3170
    -3.3133  -3.3129  -3.3090  -3.3085  -3.2996  -3.2968  -3.2918  -3.2860
    -3.2813  -3.2793  -3.2590  -3.2496  -3.2467  -3.2437  -3.2380  -3.2287
    -3.2196  -3.2188  -3.2141  -3.2101  -3.2021  -3.1997  -3.1888  -3.1804
    -3.1789  -3.1731  -3.1720  -3.1683  -3.1668  -3.1591  -3.1580  -3.1458
    -3.1456  -3.1215  -3.1211  -3.1105  -3.0982  -3.0905  -3.0843  -3.0579
    -3.0412  -3.0399  -3.0344  -3.0332  -3.0261  -3.0238  -3.0230  -3.0180
    -3.0172  -3.0162  -3.0155  -3.0090  -3.0023  -3.0014  -2.9893  -2.9848
    -2.9817  -2.9806  -2.9799  -2.9749  -2.9749  -2.9710  -2.9685  -2.9508
    -2.9150  -2.9130  -2.8900  -2.8757  -2.8741  -2.8623  -2.8596  -2.8492
    -2.8475  -2.8279  -2.8219  -2.8204  -2.7996  -2.7961  -2.7955  -2.7830
    -2.7796  -2.7753  -2.7673  -2.7640  -2.7501  -2.7491  -2.7467  -2.7420
    -2.7232  -2.7224  -2.7206  -2.7179  -2.6627  -2.6542  -2.6461  -2.6366
    -2.6295  -2.6260  -2.6214  -2.5955  -2.5800  -2.5697  -2.5673  -2.5668
    -2.5634  -2.5589  -2.5530  -2.5407  -2.5280  -2.5251  -2.5194  -2.5160
    -2.5089  -2.5071  -2.5011  -2.4928  -2.4898  -2.4862  -2.4804  -2.4791
    -2.4731  -2.4723  -2.4664  -2.4656  -2.4597  -2.4490  -2.4352  -2.4346
    -2.4064  -2.4000  -2.3982  -2.3742  -2.3702  -2.3632  -2.3558  -2.3557
    -2.3486  -2.3452  -2.3355  -2.3323  -2.3152  -2.3003  -2.2927  -2.2718
    -2.2685  -2.2666  -2.2636  -2.2487  -2.2432  -2.2335  -2.2316  -2.2150
    -2.2125  -2.2054  -2.2052  -2.1978  -2.1970  -2.1782  -2.1448  -2.1360
    -2.1303  -2.1057  -2.1023  -2.0847  -2.0674  -2.0484  -2.0474  -2.0441
    -2.0373  -2.0318  -2.0022  -1.9982  -1.9948  -1.9640  -1.9606  -1.9572
    -1.9560  -1.9518  -1.9480  -1.9452  -1.9392  -1.9387  -1.9369  -1.9308
    -1.9298  -1.9274  -1.9170  -1.9121  -1.9077  -1.9019  -1.8646  -1.8556
    -1.8549  -1.8385  -1.8309  -1.8272  -1.8231  -1.8170  -1.8160  -1.8135
    -1.8114  -1.8013  -1.8001  -1.7990  -1.7933  -1.7664  -1.7595  -1.7585
    -1.7574  -1.7482  -1.7431  -1.7424  -1.7365  -1.7364  -1.7265  -1.7238
    -1.7062  -1.7046  -1.6988  -1.6979  -1.6880  -1.6743  -1.6701  -1.6657
    -1.6634  -1.6586  -1.6507  -1.6287  -1.6130  -1.6037  -1.5993  -1.5974
    -1.5791  -1.5759  -1.5754  -1.5739  -1.5601  -1.5447  -1.5043  -1.4991
    -1.4926  -1.4880  -1.4799  -1.4790  -1.4706  -1.4672  -1.4598  -1.4580
    -1.4510  -1.4443  -1.4335  -1.4324  -1.4261  -1.4132  -1.4126  -1.4073
    -1.3996  -1.3816  -1.3717  -1.3684  -1.3629  -1.3579  -1.3453  -1.3395
    -1.3277  -1.3256  -1.3218  -1.3073  -1.3025  -1.2976  -1.2932  -1.2872
    -1.2871  -1.2778  -1.2765  -1.2670  -1.2645  -1.2553  -1.2536  -1.2496
    -1.2416  -1.2396  -1.2279  -1.2275  -1.2199  -1.2192  -1.2191  -1.2188
    -1.2153  -1.2087  -1.2059  -1.1779  -1.1766  -1.1706  -1.1565  -1.1554
    -1.1449  -1.1401  -1.1378  -1.1335  -1.1300  -1.1250  -1.1244  -1.1217
    -1.1188  -1.1075  -1.1059  -1.0984  -1.0873  -1.0828  -1.0799  -1.0780
    -1.0771  -1.0757  -1.0724  -1.0628  -1.0579  -1.0549  -1.0536  -1.0508
    -1.0501  -1.0441  -1.0044  -0.9810  -0.9697  -0.9649  -0.9522  -0.9373
    -0.9357  -0.9292  -0.9245  -0.9207  -0.9160  -0.9077  -0.9002  -0.8819
    -0.8780  -0.8614  -0.8300  -0.8280  -0.8259  -0.7658  -0.6681  -0.6316
    -0.6015  -0.5945  -0.5466  -0.4528  -0.3796  -0.1935  -0.1601  -0.1189
    -0.0035   0.0222   0.0573   0.1553   0.1621   0.1920   0.2706   0.2883
     0.3156   0.3347   0.5887   0.5922   0.6431   0.6719   0.7320   0.7783
     0.8027   0.8035   0.9241   0.9707   0.9832   1.1554   1.1640   1.1985
     1.3018   1.3263   1.3633   1.3876   1.4796   1.5213   1.5258   1.7955
     1.8682   1.8791   1.8973   1.9000   1.9101   1.9752   1.9821   2.0315
     2.0616   2.0734   2.1944   2.4011   2.4063   2.4084   2.4469   2.4514
     2.6432   2.6540   2.6776   2.7099   2.7216   2.7962   2.8417   3.1810
     3.2035   3.2179   3.2817   3.3295   3.3642   3.3779   3.5443   3.5476
     3.5700   3.6170   3.6260   3.7993   3.8064   3.8939   3.9030   4.0004
     4.0226   4.1243   4.1804   4.2440   4.2474   4.2705   4.3019   4.3974
     4.4721   4.4974   4.5211   4.5649   4.6631   4.8052   4.8115   4.8411
     4.8499   4.8524   4.8939   4.9670   4.9890   5.0741   5.0907   5.1945
     5.2015   5.2119   5.2381   5.2619   5.3013   5.4403   5.4932   5.5256
     5.5327   5.5331   5.5444   5.6499   5.6730   5.7196   5.7318   5.8368
     5.8523   5.8738   5.8958   5.9063   5.9064   5.9800   5.9913   6.0159
     6.0171   6.0266   6.0328   6.0423   6.0869   6.1382   6.1417   6.1477
     6.1657   6.2222   6.2291   6.3071   6.4016   6.4091   6.4469   6.4474
     6.4737   6.5149   6.5238   6.5725   6.5879   6.6323   6.6406   6.6541
     6.6608   6.6908   6.7354   6.7482   6.7688   6.8236   6.8288   6.9306
     6.9365   6.9722   6.9727   6.9987   7.0275   7.0636   7.1003   7.1088
     7.1285   7.1636   7.1907   7.1920   7.1998   7.2023   7.2796   7.2909
     7.3065   7.3547   7.3592   7.4025   7.4172   7.4339   7.4640   7.5087
     7.5608   7.5676   7.6063   7.6175   7.6582   7.6582   7.6666   7.6694
     7.6929   7.6938   7.7179   7.7229   7.7376   7.7420   7.7925   7.8309
     7.8580   7.8672   7.8737   7.9402   7.9892   7.9964   8.0025   8.0254

     the Fermi energy is     0.7845 ev

!    total energy              =  -11427.09402159 Ry
     estimated scf accuracy    <       0.00000023 Ry
     smearing contrib. (-TS)   =       0.06311167 Ry
     internal energy E=F+TS    =  -11427.15713326 Ry

     The total energy is F=E-TS. E is the sum of the following terms:
     one-electron contribution = -129707.68161188 Ry
     hartree contribution      =   65677.86612301 Ry
     xc contribution           =   -5523.82416277 Ry
     ewald contribution        =   58126.48251837 Ry

     convergence has been achieved in  22 iterations

     negative rho (up, down):  3.085E+00 0.000E+00

     Forces acting on atoms (cartesian axes, Ry/au):

     atom    1 type  1   force =    -0.00099831    0.00015722    0.00831063
     atom    2 type  1   force =    -0.00099073   -0.00021504    0.00803711
     atom    3 type  1   force =    -0.00008775    0.00022066    0.00893326
     atom    4 type  1   force =    -0.00008566   -0.00016068    0.00865663
     atom    5 type  1   force =     0.00008817    0.00025105    0.00900988
     atom    6 type  1   force =     0.00008877   -0.00013075    0.00873015
     atom    7 type  1   force =    -0.00008130    0.00023244    0.00898950
     atom    8 type  1   force =    -0.00008109   -0.00014843    0.00871253
     atom    9 type  1   force =     0.00012063    0.00023206    0.00896069
     atom   10 type  1   force =     0.00011968   -0.00014887    0.00868322
     atom   11 type  1   force =    -0.00013040    0.00024363    0.00897645
     atom   12 type  1   force =    -0.00013226   -0.00013651    0.00869712
     atom   13 type  1   force =     0.00072131    0.00026582    0.00876904
     atom   14 type  1   force =     0.00071785   -0.00011284    0.00849157
     atom   15 type  1   force =    -0.00129963    0.00040494   -0.00536318
     atom   16 type  1   force =    -0.00129639   -0.00005947   -0.00547119
     atom   17 type  1   force =    -0.00013746    0.00037843   -0.00536052
     atom   18 type  1   force =    -0.00013543   -0.00009802   -0.00546769
     atom   19 type  1   force =     0.00005500    0.00038494   -0.00530853
     atom   20 type  1   force =     0.00005481   -0.00009536   -0.00541531
     atom   21 type  1   force =    -0.00011574    0.00038895   -0.00528191
     atom   22 type  1   force =    -0.00011376   -0.00009142   -0.00538858
     atom   23 type  1   force =     0.00018992    0.00038954   -0.00529947
     atom   24 type  1   force =     0.00018887   -0.00009131   -0.00540651
     atom   25 type  1   force =    -0.00012671    0.00038126   -0.00535192
     atom   26 type  1   force =    -0.00012614   -0.00009644   -0.00545890
     atom   27 type  1   force =     0.00093927    0.00038119   -0.00535853
     atom   28 type  1   force =     0.00093761   -0.00009254   -0.00546697
     atom   29 type  1   force =    -0.00055041   -0.00011053    0.00852130
     atom   30 type  1   force =    -0.00055144   -0.00049553    0.00857395
     atom   31 type  1   force =    -0.00000042   -0.00012990    0.00873595
     atom   32 type  1   force =    -0.00000078   -0.00051836    0.00878834
     atom   33 type  1   force =     0.00011007   -0.00014201    0.00871823
     atom   34 type  1   force =     0.00011150   -0.00052871    0.00876904
     atom   35 type  1   force =     0.00001603   -0.00012965    0.00876065
     atom   36 type  1   force =     0.00001527   -0.00051612    0.00881287
     atom   37 type  1   force =    -0.00011051   -0.00013468    0.00867680
     atom   38 type  1   force =    -0.00011089   -0.00052299    0.00872871
     atom   39 type  1   force =     0.00003663   -0.00014205    0.00870183
     atom   40 type  1   force =     0.00003651   -0.00052847    0.00875413
     atom   41 type  1   force =     0.00086472   -0.00022720    0.00801443
     atom   42 type  1   force =     0.00086852   -0.00060610    0.00806584
     atom   43 type  1   force =    -0.00071987   -0.00011370   -0.00538805
     atom   44 type  1   force =    -0.00072173   -0.00061793   -0.00535768
     atom   45 type  1   force =    -0.00004699   -0.00011440   -0.00537415
     atom   46 type  1   force =    -0.00004914   -0.00062083   -0.00534568
     atom   47 type  1   force =     0.00011304   -0.00010518   -0.00532902
     atom   48 type  1   force =     0.00011263   -0.00061187   -0.00529801
     atom   49 type  1   force =     0.00003522   -0.00010799   -0.00532099
     atom   50 type  1   force =     0.00003646   -0.00061624   -0.00528954
     atom   51 type  1   force =    -0.00007851   -0.00010841   -0.00536068
     atom   52 type  1   force =    -0.00007981   -0.00061442   -0.00533138
     atom   53 type  1   force =     0.00006933   -0.00011984   -0.00541267
     atom   54 type  1   force =     0.00007156   -0.00062649   -0.00538187
     atom   55 type  1   force =     0.00112091   -0.00007846   -0.00540908
     atom   56 type  1   force =     0.00112593   -0.00057489   -0.00537725
     atom   57 type  1   force =    -0.00100157    0.00069114   -0.00835270
     atom   58 type  1   force =    -0.00099690    0.00023484   -0.00803058
     atom   59 type  1   force =    -0.00008907    0.00064305   -0.00897475
     atom   60 type  1   force =    -0.00008595    0.00017953   -0.00865261
     atom   61 type  1   force =     0.00009050    0.00061387   -0.00904562
     atom   62 type  1   force =     0.00009032    0.00014857   -0.00872255
     atom   63 type  1   force =    -0.00007354    0.00063036   -0.00902891
     atom   64 type  1   force =    -0.00007328    0.00016685   -0.00870651
     atom   65 type  1   force =     0.00012553    0.00063057   -0.00900172
     atom   66 type  1   force =     0.00012557    0.00016776   -0.00867870
     atom   67 type  1   force =    -0.00013568    0.00061952   -0.00901729
     atom   68 type  1   force =    -0.00013560    0.00015548   -0.00869434
     atom   69 type  1   force =     0.00071160    0.00059573   -0.00881000
     atom   70 type  1   force =     0.00070677    0.00013353   -0.00848894
     atom   71 type  1   force =    -0.00072178    0.00075512    0.00523152
     atom   72 type  1   force =    -0.00071971    0.00022968    0.00539911
     atom   73 type  1   force =    -0.00004651    0.00075925    0.00522110
     atom   74 type  1   force =    -0.00004511    0.00022986    0.00538777
     atom   75 type  1   force =     0.00011384    0.00075114    0.00516770
     atom   76 type  1   force =     0.00011401    0.00022132    0.00533493
     atom   77 type  1   force =     0.00004277    0.00075580    0.00514651
     atom   78 type  1   force =     0.00004226    0.00022618    0.00531281
     atom   79 type  1   force =    -0.00008138    0.00075292    0.00518859
     atom   80 type  1   force =    -0.00007993    0.00022439    0.00535328
     atom   81 type  1   force =     0.00006807    0.00076421    0.00524311
     atom   82 type  1   force =     0.00006616    0.00023605    0.00540977
     atom   83 type  1   force =     0.00112163    0.00070985    0.00524606
     atom   84 type  1   force =     0.00111525    0.00019318    0.00541311
     atom   85 type  1   force =    -0.00129751    0.00004076    0.00540481
     atom   86 type  1   force =    -0.00130268   -0.00073935    0.00557956
     atom   87 type  1   force =    -0.00013478    0.00007937    0.00540523
     atom   88 type  1   force =    -0.00013694   -0.00071427    0.00558114
     atom   89 type  1   force =     0.00005600    0.00007601    0.00534971
     atom   90 type  1   force =     0.00005599   -0.00072062    0.00552641
     atom   91 type  1   force =    -0.00011284    0.00007089    0.00531218
     atom   92 type  1   force =    -0.00011295   -0.00072497    0.00548764
     atom   93 type  1   force =     0.00019312    0.00007169    0.00532747
     atom   94 type  1   force =     0.00019478   -0.00072663    0.00550246
     atom   95 type  1   force =    -0.00012997    0.00008001    0.00537735
     atom   96 type  1   force =    -0.00012983   -0.00071919    0.00555423
     atom   97 type  1   force =     0.00093220    0.00007583    0.00539455
     atom   98 type  1   force =     0.00093448   -0.00071803    0.00556981
     atom   99 type  1   force =    -0.00055032    0.00010764   -0.00850294
     atom  100 type  1   force =    -0.00055244   -0.00028389   -0.00856573
     atom  101 type  1   force =     0.00000109    0.00013089   -0.00871908
     atom  102 type  1   force =     0.00000048   -0.00026159   -0.00878200
     atom  103 type  1   force =     0.00011398    0.00014166   -0.00869608
     atom  104 type  1   force =     0.00011549   -0.00025185   -0.00875923
     atom  105 type  1   force =     0.00002529    0.00012660   -0.00873686
     atom  106 type  1   force =     0.00002539   -0.00026661   -0.00879963
     atom  107 type  1   force =    -0.00010520    0.00013687   -0.00865780
     atom  108 type  1   force =    -0.00010548   -0.00025765   -0.00872054
     atom  109 type  1   force =     0.00002650    0.00014235   -0.00868628
     atom  110 type  1   force =     0.00002688   -0.00025190   -0.00874849
     atom  111 type  1   force =     0.00085500    0.00022485   -0.00799480
     atom  112 type  1   force =     0.00085902   -0.00016015   -0.00805783

     Total force =     0.076621     Total SCF correction =     0.002728
     Message from routine punch:
     Nothing written, as per user request (disk_io='none')
 
     init_run     :     10.74s CPU     12.53s WALL (       1 calls)
     electrons    :    711.21s CPU    770.96s WALL (       1 calls)
     forces       :      2.65s CPU      3.75s WALL (       1 calls)

     Called by init_run:
     wfcinit      :      9.39s CPU     10.71s WALL (       1 calls)
     potinit      :      0.06s CPU      0.10s WALL (       1 calls)
     hinit0       :      0.03s CPU      0.28s WALL (       1 calls)

     Called by electrons:
     c_bands      :    677.54s CPU    725.87s WALL (      23 calls)
     sum_band     :     29.04s CPU     39.51s WALL (      23 calls)
     v_of_rho     :      1.11s CPU      1.45s WALL (      23 calls)
     newd         :      1.13s CPU      1.66s WALL (      23 calls)
     mix_rho      :      0.21s CPU      0.25s WALL (      23 calls)

     Called by c_bands:
     init_us_2    :      1.49s CPU      1.55s WALL (      47 calls)
     cegterg      :    667.33s CPU    715.15s WALL (      23 calls)

     Called by *egterg:
     cdiaghg      :    478.53s CPU    489.37s WALL (     146 calls)
     h_psi        :     86.19s CPU    100.87s WALL (     148 calls)
     s_psi        :     16.60s CPU     16.97s WALL (     148 calls)
     g_psi        :      0.06s CPU      0.06s WALL (     124 calls)

     Called by h_psi:
     h_psi:calbec :     31.18s CPU     44.28s WALL (     148 calls)
     vloc_psi     :     37.66s CPU     38.26s WALL (     148 calls)
     add_vuspsi   :     17.00s CPU     17.72s WALL (     148 calls)

     General routines
     calbec       :     49.73s CPU     73.12s WALL (     175 calls)
     fft          :      1.34s CPU      1.74s WALL (     309 calls)
     ffts         :      0.24s CPU      0.25s WALL (      46 calls)
     fftw         :     41.08s CPU     41.68s WALL (  104736 calls)
     interpolate  :      0.09s CPU      0.11s WALL (      23 calls)
 
     Parallel routines
 
     PWSCF        :  12m 5.13s CPU  13m 8.22s WALL

 
   This run was terminated on:  18:10:25  26Feb2025            

=------------------------------------------------------------------------------=
   JOB DONE.
=------------------------------------------------------------------------------=
