
     Program PWSCF v.7.3.1 starts on 27Feb2025 at 11:41:23 

     This program is part of the open-source Quantum ESPRESSO suite
     for quantum simulation of materials; please cite
         "P. Giannozzi et al., J. Phys.:Condens. Matter 21 395502 (2009);
         "P. Giannozzi et al., J. Phys.:Condens. Matter 29 465901 (2017);
         "P. Giannozzi et al., J. Chem. Phys. 152 154105 (2020);
          URL http://www.quantum-espresso.org", 
     in publications or presentations arising from this work. More details at
     http://www.quantum-espresso.org/quote

     Parallel version (MPI & OpenMP), running on     512 processor cores
     Number of MPI processes:               128
     Threads/MPI process:                     4

     MPI processes distributed on     1 nodes
     225979 MiB available memory on the printing compute node when the environment starts
 
     Reading input from pw.in

     Current dimensions of program PWSCF are:
     Max number of different atomic species (ntypx) = 10
     Max number of k-points (npk) =  40000
     Max angular momentum in pseudopotentials (lmaxx) =  4
 
     K-points division:     npool     =       2
     R & G space division:  proc/nbgrp/npool/nimage =      64
     Subspace diagonalization in iterative solution of the eigenvalue problem:
     a serial algorithm will be used

 
     Parallelization info
     --------------------
     sticks:   dense  smooth     PW     G-vecs:    dense   smooth      PW
     Min         184      92     24                33716    11922    1566
     Max         185      93     25                33729    11933    1580
     Sum       11837    5915   1537              2158381   763307  100747
 
     Using Slab Decomposition
 

     Title: 
      DEISA pw benchmark                                                        


     bravais-lattice index     =            8
     lattice parameter (alat)  =      38.7583  a.u.
     unit-cell volume          =   45191.4962 (a.u.)^3
     number of atoms/cell      =          112
     number of atomic types    =            1
     number of electrons       =      1232.00
     number of Kohn-Sham states=          800
     kinetic-energy cutoff     =      25.0000  Ry
     charge density cutoff     =     200.0000  Ry
     scf convergence threshold =      1.0E-06
     mixing beta               =       0.7000
     number of iterations used =            8  plain     mixing
     Exchange-correlation=  SLA  PW   PBE  PBE
                           (   1   4   3   4   0   0   0)

     celldm(1)=  38.758300  celldm(2)=   0.494393  celldm(3)=   1.569966
     celldm(4)=   0.000000  celldm(5)=   0.000000  celldm(6)=   0.000000

     crystal axes: (cart. coord. in units of alat)
               a(1) = (   1.000000   0.000000   0.000000 )  
               a(2) = (   0.000000   0.494393   0.000000 )  
               a(3) = (   0.000000   0.000000   1.569966 )  

     reciprocal axes: (cart. coord. in units 2 pi/alat)
               b(1) = (  1.000000  0.000000  0.000000 )  
               b(2) = (  0.000000  2.022682  0.000000 )  
               b(3) = (  0.000000  0.000000  0.636956 )  


     PseudoPot. # 1 for Au read from file:
     ./Au.pbe-nd-van.UPF
     MD5 check sum: deb5c07af10777505a79e28f5b4b4115
     Pseudo is Ultrasoft + core correction, Zval = 11.0
     Generated by new atomic code, or converted to UPF format
     Using radial grid of  985 points,  3 beta functions with: 
                l(1) =   1
                l(2) =   2
                l(3) =   2
     Q(r) pseudized with  8 coefficients,  rinner =    1.100   1.100   1.100
                                                       1.100   1.100

     atomic species   valence    mass     pseudopotential
     AU               11.00   196.96000     Au( 1.00)

     No symmetry found



   Cartesian axes

     site n.     atom                  positions (alat units)
         1        AU     tau(   1) = (   1.4278394   1.9784974   0.3497317  )
         2        AU     tau(   2) = (   1.4278394   1.7313986   0.3497317  )
         3        AU     tau(   3) = (   1.5706478   1.9784974   0.3497317  )
         4        AU     tau(   4) = (   1.5706478   1.7313986   0.3497317  )
         5        AU     tau(   5) = (   1.7134072   1.9784974   0.3497317  )
         6        AU     tau(   6) = (   1.7134072   1.7313986   0.3497317  )
         7        AU     tau(   7) = (   1.8562156   1.9784974   0.3497317  )
         8        AU     tau(   8) = (   1.8562156   1.7313986   0.3497317  )
         9        AU     tau(   9) = (   1.9989753   1.9784974   0.3497317  )
        10        AU     tau(  10) = (   1.9989753   1.7313986   0.3497317  )
        11        AU     tau(  11) = (   2.1417836   1.9784974   0.3497317  )
        12        AU     tau(  12) = (   2.1417836   1.7313986   0.3497317  )
        13        AU     tau(  13) = (   2.2845431   1.9784974   0.3497317  )
        14        AU     tau(  14) = (   2.2845431   1.7313986   0.3497317  )
        15        AU     tau(  15) = (   1.4278394   2.0609450   0.2331545  )
        16        AU     tau(  16) = (   1.4278394   1.8138461   0.2331545  )
        17        AU     tau(  17) = (   1.5706478   2.0609450   0.2331545  )
        18        AU     tau(  18) = (   1.5706478   1.8138461   0.2331545  )
        19        AU     tau(  19) = (   1.7134072   2.0609450   0.2331545  )
        20        AU     tau(  20) = (   1.7134072   1.8138461   0.2331545  )
        21        AU     tau(  21) = (   1.8562156   2.0609450   0.2331545  )
        22        AU     tau(  22) = (   1.8562156   1.8138461   0.2331545  )
        23        AU     tau(  23) = (   1.9989753   2.0609450   0.2331545  )
        24        AU     tau(  24) = (   1.9989753   1.8138461   0.2331545  )
        25        AU     tau(  25) = (   2.1417836   2.0609450   0.2331545  )
        26        AU     tau(  26) = (   2.1417836   1.8138461   0.2331545  )
        27        AU     tau(  27) = (   2.2845431   2.0609450   0.2331545  )
        28        AU     tau(  28) = (   2.2845431   1.8138461   0.2331545  )
        29        AU     tau(  29) = (   1.4992193   2.1021445   0.3497317  )
        30        AU     tau(  30) = (   1.4992193   1.8550455   0.3497317  )
        31        AU     tau(  31) = (   1.6420276   2.1021445   0.3497317  )
        32        AU     tau(  32) = (   1.6420276   1.8550455   0.3497317  )
        33        AU     tau(  33) = (   1.7847871   2.1021445   0.3497317  )
        34        AU     tau(  34) = (   1.7847871   1.8550455   0.3497317  )
        35        AU     tau(  35) = (   1.9275954   2.1021445   0.3497317  )
        36        AU     tau(  36) = (   1.9275954   1.8550455   0.3497317  )
        37        AU     tau(  37) = (   2.0704038   2.1021445   0.3497317  )
        38        AU     tau(  38) = (   2.0704038   1.8550455   0.3497317  )
        39        AU     tau(  39) = (   2.2131632   2.1021445   0.3497317  )
        40        AU     tau(  40) = (   2.2131632   1.8550455   0.3497317  )
        41        AU     tau(  41) = (   2.3559716   2.1021445   0.3497317  )
        42        AU     tau(  42) = (   2.3559716   1.8550455   0.3497317  )
        43        AU     tau(  43) = (   1.4992193   1.6901992   0.2331545  )
        44        AU     tau(  44) = (   1.4992193   1.9374930   0.2331545  )
        45        AU     tau(  45) = (   1.6420276   1.6901992   0.2331545  )
        46        AU     tau(  46) = (   1.6420276   1.9374930   0.2331545  )
        47        AU     tau(  47) = (   1.7847871   1.6901992   0.2331545  )
        48        AU     tau(  48) = (   1.7847871   1.9374930   0.2331545  )
        49        AU     tau(  49) = (   1.9275954   1.6901992   0.2331545  )
        50        AU     tau(  50) = (   1.9275954   1.9374930   0.2331545  )
        51        AU     tau(  51) = (   2.0704038   1.6901992   0.2331545  )
        52        AU     tau(  52) = (   2.0704038   1.9374930   0.2331545  )
        53        AU     tau(  53) = (   2.2131632   1.6901992   0.2331545  )
        54        AU     tau(  54) = (   2.2131632   1.9374930   0.2331545  )
        55        AU     tau(  55) = (   2.3559716   1.6901992   0.2331545  )
        56        AU     tau(  56) = (   2.3559716   1.9374930   0.2331545  )
        57        AU     tau(  57) = (   1.4278394   1.9784974   0.0000000  )
        58        AU     tau(  58) = (   1.4278394   1.7313986   0.0000000  )
        59        AU     tau(  59) = (   1.5706478   1.9784974   0.0000000  )
        60        AU     tau(  60) = (   1.5706478   1.7313986   0.0000000  )
        61        AU     tau(  61) = (   1.7134072   1.9784974   0.0000000  )
        62        AU     tau(  62) = (   1.7134072   1.7313986   0.0000000  )
        63        AU     tau(  63) = (   1.8562156   1.9784974   0.0000000  )
        64        AU     tau(  64) = (   1.8562156   1.7313986   0.0000000  )
        65        AU     tau(  65) = (   1.9989753   1.9784974   0.0000000  )
        66        AU     tau(  66) = (   1.9989753   1.7313986   0.0000000  )
        67        AU     tau(  67) = (   2.1417836   1.9784974   0.0000000  )
        68        AU     tau(  68) = (   2.1417836   1.7313986   0.0000000  )
        69        AU     tau(  69) = (   2.2845431   1.9784974   0.0000000  )
        70        AU     tau(  70) = (   2.2845431   1.7313986   0.0000000  )
        71        AU     tau(  71) = (   1.4992193   2.0196968   0.1165772  )
        72        AU     tau(  72) = (   1.4992193   1.7725979   0.1165772  )
        73        AU     tau(  73) = (   1.6420276   2.0196968   0.1165772  )
        74        AU     tau(  74) = (   1.6420276   1.7725979   0.1165772  )
        75        AU     tau(  75) = (   1.7847871   2.0196968   0.1165772  )
        76        AU     tau(  76) = (   1.7847871   1.7725979   0.1165772  )
        77        AU     tau(  77) = (   1.9275954   2.0196968   0.1165772  )
        78        AU     tau(  78) = (   1.9275954   1.7725979   0.1165772  )
        79        AU     tau(  79) = (   2.0704038   2.0196968   0.1165772  )
        80        AU     tau(  80) = (   2.0704038   1.7725979   0.1165772  )
        81        AU     tau(  81) = (   2.2131632   2.0196968   0.1165772  )
        82        AU     tau(  82) = (   2.2131632   1.7725979   0.1165772  )
        83        AU     tau(  83) = (   2.3559716   2.0196968   0.1165772  )
        84        AU     tau(  84) = (   2.3559716   1.7725979   0.1165772  )
        85        AU     tau(  85) = (   1.4278394   2.1433437   0.1165772  )
        86        AU     tau(  86) = (   1.4278394   1.8962937   0.1165772  )
        87        AU     tau(  87) = (   1.5706478   2.1433437   0.1165772  )
        88        AU     tau(  88) = (   1.5706478   1.8962937   0.1165772  )
        89        AU     tau(  89) = (   1.7134072   2.1433437   0.1165772  )
        90        AU     tau(  90) = (   1.7134072   1.8962937   0.1165772  )
        91        AU     tau(  91) = (   1.8562156   2.1433437   0.1165772  )
        92        AU     tau(  92) = (   1.8562156   1.8962937   0.1165772  )
        93        AU     tau(  93) = (   1.9989753   2.1433437   0.1165772  )
        94        AU     tau(  94) = (   1.9989753   1.8962937   0.1165772  )
        95        AU     tau(  95) = (   2.1417836   2.1433437   0.1165772  )
        96        AU     tau(  96) = (   2.1417836   1.8962937   0.1165772  )
        97        AU     tau(  97) = (   2.2845431   2.1433437   0.1165772  )
        98        AU     tau(  98) = (   2.2845431   1.8962937   0.1165772  )
        99        AU     tau(  99) = (   1.4992193   2.1021445   0.0000000  )
       100        AU     tau( 100) = (   1.4992193   1.8550455   0.0000000  )
       101        AU     tau( 101) = (   1.6420276   2.1021445   0.0000000  )
       102        AU     tau( 102) = (   1.6420276   1.8550455   0.0000000  )
       103        AU     tau( 103) = (   1.7847871   2.1021445   0.0000000  )
       104        AU     tau( 104) = (   1.7847871   1.8550455   0.0000000  )
       105        AU     tau( 105) = (   1.9275954   2.1021445   0.0000000  )
       106        AU     tau( 106) = (   1.9275954   1.8550455   0.0000000  )
       107        AU     tau( 107) = (   2.0704038   2.1021445   0.0000000  )
       108        AU     tau( 108) = (   2.0704038   1.8550455   0.0000000  )
       109        AU     tau( 109) = (   2.2131632   2.1021445   0.0000000  )
       110        AU     tau( 110) = (   2.2131632   1.8550455   0.0000000  )
       111        AU     tau( 111) = (   2.3559716   2.1021445   0.0000000  )
       112        AU     tau( 112) = (   2.3559716   1.8550455   0.0000000  )

     number of k points=     2  Marzari-Vanderbilt smearing, width (Ry)=  0.0500
                       cart. coord. in units 2pi/alat
        k(    1) = (   0.2500000   0.5056706   0.0000000), wk =   1.0000000
        k(    2) = (  -0.2500000   0.5056706   0.0000000), wk =   1.0000000

     Dense  grid:  2158381 G-vectors     FFT dimensions: ( 180,  90, 288)

     Smooth grid:   763307 G-vectors     FFT dimensions: ( 125,  64, 200)

     Estimated max dynamical RAM per process >     315.13 MB

     Estimated total dynamical RAM >      38.88 GB

     Initial potential from superposition of free atoms

     starting charge    1230.6995, renormalised to    1232.0000

     negative rho (up, down):  3.043E+00 0.000E+00
     Starting wfcs are 1008 randomized atomic wfcs

     total cpu time spent up to now is      112.7 secs

     Self-consistent Calculation

     iteration #  1     ecut=    25.00 Ry     beta= 0.70
     Davidson diagonalization with overlap
     ethr =  1.00E-02,  avg # of iterations =  5.0

     Threshold (ethr) on eigenvalues was too large:
     Diagonalizing with lowered threshold

     Davidson diagonalization with overlap
     c_bands:  1 eigenvalues not converged
     ethr =  4.37E-04,  avg # of iterations = 20.0

     negative rho (up, down):  2.992E+00 0.000E+00

     total cpu time spent up to now is      635.0 secs

     total energy              =  -11423.49016692 Ry
     estimated scf accuracy    <       6.31624293 Ry

     iteration #  2     ecut=    25.00 Ry     beta= 0.70
     Davidson diagonalization with overlap
     ethr =  5.13E-04,  avg # of iterations = 16.0

     negative rho (up, down):  2.993E+00 0.000E+00

     total cpu time spent up to now is     1064.5 secs

     total energy              =  -11408.38435419 Ry
     estimated scf accuracy    <     196.11952558 Ry

     iteration #  3     ecut=    25.00 Ry     beta= 0.70
     Davidson diagonalization with overlap
     ethr =  5.13E-04,  avg # of iterations = 10.0

     negative rho (up, down):  3.038E+00 0.000E+00

     total cpu time spent up to now is     1423.2 secs

     total energy              =  -11426.41194734 Ry
     estimated scf accuracy    <       5.03056904 Ry

     iteration #  4     ecut=    25.00 Ry     beta= 0.70
     Davidson diagonalization with overlap
     ethr =  4.08E-04,  avg # of iterations =  2.0

     negative rho (up, down):  3.046E+00 0.000E+00

     total cpu time spent up to now is     1618.3 secs

     total energy              =  -11426.62610473 Ry
     estimated scf accuracy    <       4.21420155 Ry

     iteration #  5     ecut=    25.00 Ry     beta= 0.70
     Davidson diagonalization with overlap
     ethr =  3.42E-04,  avg # of iterations =  2.0

     negative rho (up, down):  3.061E+00 0.000E+00

     total cpu time spent up to now is     1810.8 secs

     total energy              =  -11426.86683138 Ry
     estimated scf accuracy    <       4.90141846 Ry

     iteration #  6     ecut=    25.00 Ry     beta= 0.70
     Davidson diagonalization with overlap
     ethr =  3.42E-04,  avg # of iterations =  1.0

     negative rho (up, down):  3.070E+00 0.000E+00

     total cpu time spent up to now is     1994.8 secs

     total energy              =  -11427.08079804 Ry
     estimated scf accuracy    <       0.09050804 Ry

     iteration #  7     ecut=    25.00 Ry     beta= 0.70
     Davidson diagonalization with overlap
     ethr =  7.35E-06,  avg # of iterations = 17.5

     negative rho (up, down):  3.079E+00 0.000E+00

     total cpu time spent up to now is     2357.1 secs

     total energy              =  -11427.07352705 Ry
     estimated scf accuracy    <       0.20568991 Ry

     iteration #  8     ecut=    25.00 Ry     beta= 0.70
     Davidson diagonalization with overlap
     ethr =  7.35E-06,  avg # of iterations = 12.0

     negative rho (up, down):  3.080E+00 0.000E+00

     total cpu time spent up to now is     2599.0 secs

     total energy              =  -11427.08998183 Ry
     estimated scf accuracy    <       0.06442626 Ry

     iteration #  9     ecut=    25.00 Ry     beta= 0.70
     Davidson diagonalization with overlap
     ethr =  5.23E-06,  avg # of iterations =  5.0

     negative rho (up, down):  3.082E+00 0.000E+00

     total cpu time spent up to now is     2817.4 secs

     total energy              =  -11427.09301727 Ry
     estimated scf accuracy    <       0.01658721 Ry

     iteration # 10     ecut=    25.00 Ry     beta= 0.70
     Davidson diagonalization with overlap
     ethr =  1.35E-06,  avg # of iterations =  5.0

     negative rho (up, down):  3.083E+00 0.000E+00

     total cpu time spent up to now is     3017.5 secs

     total energy              =  -11427.09346023 Ry
     estimated scf accuracy    <       0.00449407 Ry

     iteration # 11     ecut=    25.00 Ry     beta= 0.70
     Davidson diagonalization with overlap
     ethr =  3.65E-07,  avg # of iterations =  2.0

     negative rho (up, down):  3.083E+00 0.000E+00

     total cpu time spent up to now is     3207.9 secs

     total energy              =  -11427.09375612 Ry
     estimated scf accuracy    <       0.00159895 Ry

     iteration # 12     ecut=    25.00 Ry     beta= 0.70
     Davidson diagonalization with overlap
     ethr =  1.30E-07,  avg # of iterations =  2.0

     negative rho (up, down):  3.084E+00 0.000E+00

     total cpu time spent up to now is     3396.3 secs

     total energy              =  -11427.09392624 Ry
     estimated scf accuracy    <       0.00093612 Ry

     iteration # 13     ecut=    25.00 Ry     beta= 0.70
     Davidson diagonalization with overlap
     ethr =  7.60E-08,  avg # of iterations =  1.0

     negative rho (up, down):  3.084E+00 0.000E+00

     total cpu time spent up to now is     3579.8 secs

     total energy              =  -11427.09400091 Ry
     estimated scf accuracy    <       0.00010154 Ry

     iteration # 14     ecut=    25.00 Ry     beta= 0.70
     Davidson diagonalization with overlap
     ethr =  8.24E-09,  avg # of iterations =  2.0

     negative rho (up, down):  3.084E+00 0.000E+00

     total cpu time spent up to now is     3779.1 secs

     total energy              =  -11427.09401291 Ry
     estimated scf accuracy    <       0.00004075 Ry

     iteration # 15     ecut=    25.00 Ry     beta= 0.70
     Davidson diagonalization with overlap
     ethr =  3.31E-09,  avg # of iterations =  2.0

     negative rho (up, down):  3.084E+00 0.000E+00

     total cpu time spent up to now is     3970.9 secs

     total energy              =  -11427.09401239 Ry
     estimated scf accuracy    <       0.00010926 Ry

     iteration # 16     ecut=    25.00 Ry     beta= 0.70
     Davidson diagonalization with overlap
     ethr =  3.31E-09,  avg # of iterations =  2.0

     negative rho (up, down):  3.085E+00 0.000E+00

     total cpu time spent up to now is     4159.5 secs

     total energy              =  -11427.09401342 Ry
     estimated scf accuracy    <       0.00012459 Ry

     iteration # 17     ecut=    25.00 Ry     beta= 0.70
     Davidson diagonalization with overlap
     ethr =  3.31E-09,  avg # of iterations =  1.0

     negative rho (up, down):  3.085E+00 0.000E+00

     total cpu time spent up to now is     4343.0 secs

     total energy              =  -11427.09401794 Ry
     estimated scf accuracy    <       0.00006364 Ry

     iteration # 18     ecut=    25.00 Ry     beta= 0.70
     Davidson diagonalization with overlap
     ethr =  3.31E-09,  avg # of iterations =  1.0

     negative rho (up, down):  3.085E+00 0.000E+00

     total cpu time spent up to now is     4526.4 secs

     total energy              =  -11427.09402040 Ry
     estimated scf accuracy    <       0.00001362 Ry

     iteration # 19     ecut=    25.00 Ry     beta= 0.70
     Davidson diagonalization with overlap
     ethr =  1.11E-09,  avg # of iterations =  2.0

     negative rho (up, down):  3.085E+00 0.000E+00

     total cpu time spent up to now is     4731.7 secs

     total energy              =  -11427.09401909 Ry
     estimated scf accuracy    <       0.00006619 Ry

     iteration # 20     ecut=    25.00 Ry     beta= 0.70
     Davidson diagonalization with overlap
     ethr =  1.11E-09,  avg # of iterations =  1.0

     negative rho (up, down):  3.085E+00 0.000E+00

     total cpu time spent up to now is     4915.2 secs

     total energy              =  -11427.09402156 Ry
     estimated scf accuracy    <       0.00000209 Ry

     iteration # 21     ecut=    25.00 Ry     beta= 0.70
     Davidson diagonalization with overlap
     ethr =  1.70E-10,  avg # of iterations =  2.0

     negative rho (up, down):  3.085E+00 0.000E+00

     total cpu time spent up to now is     5102.7 secs

     End of self-consistent calculation

          k = 0.2500 0.5057 0.0000 ( 95386 PWs)   bands (ev):

    -8.0048  -7.7854  -7.3695  -7.1564  -6.9589  -6.8865  -6.8075  -6.6747
    -6.6109  -6.2901  -6.2194  -6.1890  -6.1051  -6.0374  -5.9302  -5.9280
    -5.8888  -5.8391  -5.8310  -5.8250  -5.7939  -5.7361  -5.7240  -5.6815
    -5.6675  -5.6495  -5.6454  -5.6402  -5.5498  -5.5384  -5.5309  -5.5227
    -5.5164  -5.5073  -5.4892  -5.4813  -5.4630  -5.4595  -5.4283  -5.3752
    -5.3690  -5.3537  -5.3516  -5.3171  -5.3099  -5.2939  -5.2913  -5.2337
    -5.2327  -5.2326  -5.2282  -5.2184  -5.1997  -5.1786  -5.1554  -5.1447
    -5.1298  -5.1244  -5.1157  -5.1142  -5.1105  -5.1092  -5.0881  -5.0675
    -5.0647  -5.0571  -5.0560  -5.0489  -5.0407  -5.0377  -5.0304  -4.9878
    -4.9820  -4.9669  -4.9637  -4.9482  -4.9343  -4.9324  -4.9289  -4.9268
    -4.9176  -4.9160  -4.9069  -4.9039  -4.8858  -4.8854  -4.8817  -4.8719
    -4.8718  -4.8622  -4.8596  -4.8487  -4.8280  -4.8270  -4.8247  -4.8221
    -4.7418  -4.7393  -4.7376  -4.7368  -4.7329  -4.7255  -4.7211  -4.7209
    -4.7202  -4.7120  -4.6995  -4.6848  -4.6742  -4.6165  -4.6001  -4.5970
    -4.5934  -4.5850  -4.5624  -4.5610  -4.5574  -4.5268  -4.4706  -4.4695
    -4.4509  -4.4138  -4.3980  -4.3951  -4.3935  -4.3932  -4.3917  -4.3854
    -4.3553  -4.3457  -4.3451  -4.3371  -4.3256  -4.3229  -4.3201  -4.3036
    -4.3021  -4.2738  -4.2645  -4.2573  -4.2477  -4.2452  -4.2294  -4.2106
    -4.1938  -4.1679  -4.1562  -4.1550  -4.1546  -4.1530  -4.1482  -4.1395
    -4.1372  -4.1044  -4.0972  -4.0834  -4.0774  -4.0762  -4.0698  -4.0543
    -4.0505  -4.0353  -4.0307  -4.0240  -4.0213  -4.0172  -4.0084  -3.9939
    -3.9867  -3.9707  -3.9586  -3.9275  -3.9140  -3.8986  -3.8931  -3.8896
    -3.8709  -3.8706  -3.8611  -3.8373  -3.8365  -3.8329  -3.8164  -3.8084
    -3.7859  -3.7801  -3.7392  -3.7357  -3.7264  -3.7241  -3.7149  -3.7101
    -3.7009  -3.6852  -3.6807  -3.6711  -3.6589  -3.6404  -3.6192  -3.6191
    -3.6172  -3.6162  -3.6055  -3.6018  -3.5990  -3.5951  -3.5916  -3.5797
    -3.5698  -3.5670  -3.5645  -3.5595  -3.5575  -3.5508  -3.5458  -3.5448
    -3.5435  -3.5342  -3.5235  -3.4922  -3.4822  -3.4563  -3.4539  -3.4429
    -3.4425  -3.4404  -3.4392  -3.4261  -3.4213  -3.4127  -3.4050  -3.3970
    -3.3879  -3.3797  -3.3740  -3.3719  -3.3703  -3.3695  -3.3643  -3.3562
    -3.3525  -3.3373  -3.3356  -3.3268  -3.3260  -3.3244  -3.3199  -3.3171
    -3.3133  -3.3129  -3.3091  -3.3086  -3.2996  -3.2969  -3.2919  -3.2860
    -3.2813  -3.2794  -3.2591  -3.2497  -3.2467  -3.2437  -3.2381  -3.2288
    -3.2197  -3.2189  -3.2142  -3.2102  -3.2021  -3.1997  -3.1889  -3.1805
    -3.1789  -3.1732  -3.1721  -3.1684  -3.1669  -3.1592  -3.1580  -3.1458
    -3.1457  -3.1216  -3.1212  -3.1105  -3.0983  -3.0906  -3.0844  -3.0579
    -3.0413  -3.0400  -3.0345  -3.0333  -3.0262  -3.0239  -3.0231  -3.0181
    -3.0172  -3.0163  -3.0155  -3.0091  -3.0024  -3.0015  -2.9893  -2.9848
    -2.9818  -2.9808  -2.9801  -2.9749  -2.9749  -2.9710  -2.9686  -2.9508
    -2.9150  -2.9130  -2.8900  -2.8758  -2.8742  -2.8623  -2.8597  -2.8493
    -2.8475  -2.8280  -2.8220  -2.8204  -2.7997  -2.7962  -2.7956  -2.7831
    -2.7796  -2.7753  -2.7674  -2.7641  -2.7502  -2.7492  -2.7468  -2.7421
    -2.7233  -2.7225  -2.7206  -2.7179  -2.6628  -2.6543  -2.6461  -2.6366
    -2.6296  -2.6261  -2.6215  -2.5956  -2.5801  -2.5698  -2.5674  -2.5669
    -2.5634  -2.5590  -2.5531  -2.5408  -2.5281  -2.5252  -2.5194  -2.5161
    -2.5090  -2.5071  -2.5011  -2.4929  -2.4899  -2.4862  -2.4805  -2.4792
    -2.4732  -2.4724  -2.4665  -2.4656  -2.4598  -2.4490  -2.4353  -2.4347
    -2.4064  -2.4001  -2.3982  -2.3743  -2.3702  -2.3632  -2.3559  -2.3558
    -2.3487  -2.3452  -2.3356  -2.3324  -2.3153  -2.3003  -2.2928  -2.2719
    -2.2685  -2.2667  -2.2637  -2.2488  -2.2432  -2.2335  -2.2317  -2.2150
    -2.2126  -2.2054  -2.2052  -2.1979  -2.1970  -2.1783  -2.1448  -2.1361
    -2.1304  -2.1058  -2.1024  -2.0848  -2.0674  -2.0484  -2.0475  -2.0441
    -2.0373  -2.0319  -2.0023  -1.9982  -1.9948  -1.9641  -1.9606  -1.9573
    -1.9560  -1.9519  -1.9480  -1.9453  -1.9393  -1.9387  -1.9369  -1.9308
    -1.9299  -1.9275  -1.9170  -1.9122  -1.9078  -1.9020  -1.8646  -1.8556
    -1.8550  -1.8385  -1.8310  -1.8273  -1.8232  -1.8170  -1.8161  -1.8136
    -1.8115  -1.8014  -1.8001  -1.7990  -1.7934  -1.7665  -1.7596  -1.7585
    -1.7575  -1.7483  -1.7432  -1.7425  -1.7365  -1.7365  -1.7266  -1.7239
    -1.7062  -1.7047  -1.6988  -1.6979  -1.6881  -1.6744  -1.6702  -1.6658
    -1.6635  -1.6587  -1.6508  -1.6288  -1.6130  -1.6038  -1.5994  -1.5975
    -1.5791  -1.5760  -1.5754  -1.5740  -1.5601  -1.5447  -1.5043  -1.4992
    -1.4926  -1.4881  -1.4800  -1.4791  -1.4706  -1.4673  -1.4598  -1.4580
    -1.4511  -1.4444  -1.4336  -1.4324  -1.4261  -1.4132  -1.4127  -1.4074
    -1.3996  -1.3817  -1.3717  -1.3684  -1.3629  -1.3579  -1.3454  -1.3396
    -1.3277  -1.3256  -1.3218  -1.3073  -1.3026  -1.2977  -1.2932  -1.2873
    -1.2872  -1.2778  -1.2765  -1.2670  -1.2646  -1.2554  -1.2536  -1.2497
    -1.2416  -1.2397  -1.2279  -1.2276  -1.2199  -1.2193  -1.2191  -1.2189
    -1.2153  -1.2088  -1.2059  -1.1780  -1.1767  -1.1706  -1.1565  -1.1554
    -1.1449  -1.1401  -1.1379  -1.1335  -1.1300  -1.1250  -1.1245  -1.1217
    -1.1189  -1.1076  -1.1059  -1.0985  -1.0874  -1.0828  -1.0800  -1.0780
    -1.0772  -1.0757  -1.0724  -1.0628  -1.0579  -1.0549  -1.0537  -1.0508
    -1.0501  -1.0441  -1.0045  -0.9810  -0.9697  -0.9649  -0.9523  -0.9373
    -0.9359  -0.9293  -0.9245  -0.9208  -0.9161  -0.9077  -0.9003  -0.8820
    -0.8780  -0.8614  -0.8300  -0.8281  -0.8260  -0.7659  -0.6681  -0.6317
    -0.6016  -0.5945  -0.5467  -0.4528  -0.3797  -0.1936  -0.1602  -0.1189
    -0.0036   0.0221   0.0572   0.1553   0.1620   0.1919   0.2706   0.2882
     0.3155   0.3346   0.5887   0.5921   0.6430   0.6718   0.7319   0.7783
     0.8027   0.8035   0.9241   0.9706   0.9831   1.1553   1.1639   1.1985
     1.3017   1.3262   1.3632   1.3875   1.4796   1.5213   1.5257   1.7954
     1.8681   1.8790   1.8972   1.8999   1.9100   1.9751   1.9821   2.0315
     2.0616   2.0733   2.1943   2.4010   2.4063   2.4083   2.4468   2.4514
     2.6431   2.6540   2.6776   2.7098   2.7216   2.7962   2.8416   3.1810
     3.2035   3.2178   3.2817   3.3295   3.3641   3.3778   3.5443   3.5475
     3.5700   3.6169   3.6259   3.7992   3.8064   3.8938   3.9030   4.0004
     4.0226   4.1242   4.1804   4.2439   4.2474   4.2704   4.3018   4.3974
     4.4720   4.4974   4.5211   4.5648   4.6630   4.8052   4.8115   4.8410
     4.8498   4.8523   4.8939   4.9669   4.9890   5.0740   5.0907   5.1945
     5.2015   5.2118   5.2380   5.2618   5.3013   5.4403   5.4932   5.5255
     5.5326   5.5330   5.5444   5.6498   5.6730   5.7195   5.7318   5.8368
     5.8522   5.8738   5.8957   5.9063   5.9064   5.9800   5.9912   6.0159
     6.0171   6.0265   6.0328   6.0422   6.0869   6.1381   6.1418   6.1477
     6.1657   6.2221   6.2292   6.3071   6.4016   6.4092   6.4469   6.4473
     6.4738   6.5148   6.5237   6.5725   6.5878   6.6322   6.6406   6.6540
     6.6608   6.6908   6.7353   6.7482   6.7688   6.8237   6.8288   6.9306
     6.9365   6.9722   6.9727   6.9987   7.0275   7.0636   7.1003   7.1088
     7.1284   7.1636   7.1906   7.1920   7.1998   7.2023   7.2795   7.2909
     7.3065   7.3547   7.3591   7.4025   7.4172   7.4339   7.4641   7.5086
     7.5608   7.5675   7.6062   7.6175   7.6582   7.6582   7.6666   7.6693
     7.6931   7.6938   7.7179   7.7229   7.7376   7.7420   7.7925   7.8310
     7.8580   7.8671   7.8741   7.9402   7.9895   7.9965   8.0021   8.0257

          k =-0.2500 0.5057 0.0000 ( 95386 PWs)   bands (ev):

    -8.0048  -7.7854  -7.3695  -7.1564  -6.9589  -6.8865  -6.8075  -6.6747
    -6.6109  -6.2901  -6.2194  -6.1890  -6.1051  -6.0374  -5.9302  -5.9280
    -5.8888  -5.8391  -5.8310  -5.8250  -5.7939  -5.7361  -5.7240  -5.6815
    -5.6675  -5.6495  -5.6454  -5.6402  -5.5498  -5.5384  -5.5309  -5.5227
    -5.5164  -5.5073  -5.4892  -5.4813  -5.4630  -5.4595  -5.4283  -5.3752
    -5.3690  -5.3537  -5.3516  -5.3171  -5.3099  -5.2939  -5.2913  -5.2337
    -5.2327  -5.2326  -5.2282  -5.2184  -5.1997  -5.1786  -5.1554  -5.1447
    -5.1298  -5.1244  -5.1157  -5.1142  -5.1106  -5.1092  -5.0881  -5.0675
    -5.0647  -5.0571  -5.0560  -5.0489  -5.0407  -5.0377  -5.0304  -4.9878
    -4.9820  -4.9669  -4.9637  -4.9482  -4.9343  -4.9324  -4.9289  -4.9268
    -4.9176  -4.9160  -4.9069  -4.9039  -4.8858  -4.8854  -4.8817  -4.8719
    -4.8718  -4.8622  -4.8596  -4.8487  -4.8280  -4.8270  -4.8247  -4.8221
    -4.7418  -4.7393  -4.7376  -4.7368  -4.7329  -4.7255  -4.7212  -4.7208
    -4.7202  -4.7120  -4.6995  -4.6848  -4.6742  -4.6165  -4.6001  -4.5970
    -4.5934  -4.5850  -4.5624  -4.5610  -4.5574  -4.5268  -4.4706  -4.4695
    -4.4509  -4.4138  -4.3980  -4.3951  -4.3935  -4.3932  -4.3917  -4.3854
    -4.3553  -4.3457  -4.3451  -4.3371  -4.3256  -4.3229  -4.3201  -4.3036
    -4.3021  -4.2738  -4.2645  -4.2573  -4.2477  -4.2452  -4.2294  -4.2106
    -4.1938  -4.1679  -4.1562  -4.1550  -4.1545  -4.1530  -4.1482  -4.1395
    -4.1372  -4.1044  -4.0972  -4.0834  -4.0774  -4.0762  -4.0698  -4.0544
    -4.0505  -4.0353  -4.0307  -4.0240  -4.0213  -4.0172  -4.0084  -3.9939
    -3.9867  -3.9707  -3.9586  -3.9275  -3.9140  -3.8986  -3.8931  -3.8896
    -3.8709  -3.8706  -3.8611  -3.8373  -3.8365  -3.8329  -3.8164  -3.8084
    -3.7859  -3.7801  -3.7392  -3.7357  -3.7264  -3.7241  -3.7149  -3.7101
    -3.7009  -3.6852  -3.6807  -3.6711  -3.6589  -3.6404  -3.6192  -3.6191
    -3.6172  -3.6161  -3.6055  -3.6018  -3.5990  -3.5951  -3.5916  -3.5797
    -3.5698  -3.5670  -3.5645  -3.5595  -3.5575  -3.5508  -3.5458  -3.5448
    -3.5435  -3.5342  -3.5235  -3.4922  -3.4822  -3.4563  -3.4539  -3.4429
    -3.4425  -3.4404  -3.4392  -3.4261  -3.4213  -3.4127  -3.4050  -3.3970
    -3.3879  -3.3797  -3.3740  -3.3720  -3.3703  -3.3695  -3.3643  -3.3562
    -3.3525  -3.3373  -3.3356  -3.3268  -3.3261  -3.3244  -3.3199  -3.3171
    -3.3133  -3.3129  -3.3091  -3.3086  -3.2996  -3.2970  -3.2919  -3.2860
    -3.2813  -3.2794  -3.2591  -3.2497  -3.2467  -3.2437  -3.2381  -3.2288
    -3.2197  -3.2189  -3.2142  -3.2102  -3.2021  -3.1997  -3.1889  -3.1805
    -3.1789  -3.1732  -3.1721  -3.1684  -3.1669  -3.1592  -3.1580  -3.1458
    -3.1457  -3.1216  -3.1212  -3.1105  -3.0983  -3.0906  -3.0844  -3.0579
    -3.0413  -3.0399  -3.0345  -3.0333  -3.0262  -3.0239  -3.0231  -3.0180
    -3.0173  -3.0163  -3.0155  -3.0091  -3.0024  -3.0014  -2.9893  -2.9849
    -2.9818  -2.9807  -2.9800  -2.9750  -2.9749  -2.9710  -2.9686  -2.9508
    -2.9150  -2.9130  -2.8900  -2.8758  -2.8742  -2.8624  -2.8597  -2.8493
    -2.8476  -2.8280  -2.8220  -2.8204  -2.7997  -2.7962  -2.7956  -2.7831
    -2.7796  -2.7753  -2.7674  -2.7641  -2.7502  -2.7492  -2.7468  -2.7421
    -2.7233  -2.7225  -2.7206  -2.7179  -2.6628  -2.6543  -2.6461  -2.6366
    -2.6296  -2.6261  -2.6215  -2.5956  -2.5801  -2.5698  -2.5674  -2.5669
    -2.5635  -2.5590  -2.5531  -2.5408  -2.5281  -2.5252  -2.5194  -2.5161
    -2.5090  -2.5071  -2.5011  -2.4929  -2.4899  -2.4862  -2.4804  -2.4792
    -2.4732  -2.4724  -2.4665  -2.4656  -2.4598  -2.4490  -2.4353  -2.4347
    -2.4064  -2.4001  -2.3982  -2.3743  -2.3702  -2.3632  -2.3559  -2.3558
    -2.3487  -2.3452  -2.3356  -2.3323  -2.3153  -2.3003  -2.2928  -2.2719
    -2.2685  -2.2667  -2.2637  -2.2488  -2.2432  -2.2335  -2.2317  -2.2150
    -2.2126  -2.2054  -2.2052  -2.1979  -2.1970  -2.1783  -2.1448  -2.1361
    -2.1304  -2.1058  -2.1024  -2.0847  -2.0674  -2.0484  -2.0475  -2.0441
    -2.0373  -2.0319  -2.0023  -1.9982  -1.9948  -1.9641  -1.9606  -1.9573
    -1.9560  -1.9519  -1.9480  -1.9453  -1.9393  -1.9387  -1.9369  -1.9309
    -1.9299  -1.9275  -1.9170  -1.9122  -1.9078  -1.9020  -1.8646  -1.8556
    -1.8550  -1.8385  -1.8310  -1.8273  -1.8232  -1.8170  -1.8161  -1.8136
    -1.8115  -1.8014  -1.8001  -1.7990  -1.7934  -1.7665  -1.7596  -1.7585
    -1.7575  -1.7483  -1.7432  -1.7425  -1.7365  -1.7365  -1.7266  -1.7239
    -1.7062  -1.7047  -1.6988  -1.6979  -1.6881  -1.6744  -1.6702  -1.6658
    -1.6635  -1.6587  -1.6508  -1.6288  -1.6130  -1.6038  -1.5993  -1.5975
    -1.5791  -1.5760  -1.5754  -1.5740  -1.5601  -1.5447  -1.5043  -1.4992
    -1.4926  -1.4881  -1.4800  -1.4791  -1.4707  -1.4673  -1.4598  -1.4580
    -1.4511  -1.4444  -1.4336  -1.4324  -1.4261  -1.4132  -1.4127  -1.4074
    -1.3996  -1.3817  -1.3717  -1.3684  -1.3629  -1.3579  -1.3453  -1.3396
    -1.3277  -1.3256  -1.3218  -1.3073  -1.3026  -1.2977  -1.2932  -1.2873
    -1.2872  -1.2778  -1.2765  -1.2670  -1.2646  -1.2554  -1.2536  -1.2497
    -1.2416  -1.2397  -1.2279  -1.2276  -1.2199  -1.2193  -1.2191  -1.2189
    -1.2153  -1.2088  -1.2059  -1.1780  -1.1767  -1.1706  -1.1565  -1.1554
    -1.1449  -1.1401  -1.1379  -1.1335  -1.1300  -1.1250  -1.1245  -1.1217
    -1.1189  -1.1076  -1.1059  -1.0985  -1.0874  -1.0828  -1.0800  -1.0780
    -1.0772  -1.0757  -1.0724  -1.0629  -1.0579  -1.0549  -1.0537  -1.0508
    -1.0501  -1.0441  -1.0045  -0.9810  -0.9697  -0.9649  -0.9523  -0.9374
    -0.9358  -0.9293  -0.9245  -0.9208  -0.9161  -0.9077  -0.9003  -0.8820
    -0.8780  -0.8614  -0.8300  -0.8281  -0.8260  -0.7659  -0.6681  -0.6317
    -0.6016  -0.5945  -0.5467  -0.4528  -0.3797  -0.1936  -0.1602  -0.1189
    -0.0036   0.0221   0.0572   0.1553   0.1620   0.1919   0.2706   0.2882
     0.3155   0.3346   0.5887   0.5921   0.6430   0.6718   0.7319   0.7783
     0.8027   0.8035   0.9241   0.9706   0.9831   1.1553   1.1639   1.1985
     1.3017   1.3262   1.3632   1.3875   1.4796   1.5213   1.5257   1.7954
     1.8681   1.8790   1.8972   1.8999   1.9100   1.9752   1.9821   2.0315
     2.0616   2.0733   2.1943   2.4010   2.4063   2.4083   2.4468   2.4514
     2.6431   2.6540   2.6776   2.7098   2.7216   2.7962   2.8416   3.1810
     3.2035   3.2178   3.2817   3.3295   3.3641   3.3778   3.5443   3.5475
     3.5700   3.6169   3.6259   3.7992   3.8064   3.8938   3.9030   4.0004
     4.0226   4.1242   4.1804   4.2439   4.2474   4.2704   4.3018   4.3974
     4.4720   4.4974   4.5211   4.5648   4.6630   4.8052   4.8115   4.8410
     4.8498   4.8523   4.8939   4.9669   4.9890   5.0740   5.0907   5.1945
     5.2015   5.2118   5.2380   5.2618   5.3013   5.4403   5.4932   5.5255
     5.5326   5.5330   5.5444   5.6498   5.6730   5.7195   5.7318   5.8368
     5.8522   5.8738   5.8957   5.9063   5.9064   5.9800   5.9912   6.0159
     6.0171   6.0265   6.0328   6.0422   6.0869   6.1381   6.1418   6.1477
     6.1657   6.2221   6.2292   6.3071   6.4016   6.4092   6.4469   6.4473
     6.4738   6.5148   6.5237   6.5725   6.5878   6.6322   6.6406   6.6540
     6.6608   6.6908   6.7353   6.7482   6.7688   6.8237   6.8288   6.9306
     6.9365   6.9722   6.9727   6.9987   7.0275   7.0636   7.1003   7.1088
     7.1284   7.1636   7.1906   7.1919   7.1998   7.2023   7.2795   7.2909
     7.3065   7.3547   7.3591   7.4025   7.4172   7.4339   7.4641   7.5086
     7.5608   7.5675   7.6062   7.6175   7.6582   7.6582   7.6666   7.6693
     7.6931   7.6938   7.7179   7.7228   7.7376   7.7420   7.7924   7.8309
     7.8580   7.8672   7.8741   7.9408   7.9894   7.9904   8.0016   8.0256

     the Fermi energy is     0.7844 ev

!    total energy              =  -11427.09402138 Ry
     estimated scf accuracy    <       0.00000047 Ry
     smearing contrib. (-TS)   =       0.06311213 Ry
     internal energy E=F+TS    =  -11427.15713351 Ry

     The total energy is F=E-TS. E is the sum of the following terms:
     one-electron contribution = -129707.68084528 Ry
     hartree contribution      =   65677.86502622 Ry
     xc contribution           =   -5523.82383281 Ry
     ewald contribution        =   58126.48251837 Ry

     convergence has been achieved in  21 iterations

     negative rho (up, down):  3.085E+00 0.000E+00

     Forces acting on atoms (cartesian axes, Ry/au):

     atom    1 type  1   force =    -0.00098214    0.00015596    0.00840033
     atom    2 type  1   force =    -0.00097446   -0.00021176    0.00814199
     atom    3 type  1   force =    -0.00012926    0.00021735    0.00898957
     atom    4 type  1   force =    -0.00012811   -0.00015811    0.00872338
     atom    5 type  1   force =     0.00001074    0.00024902    0.00900880
     atom    6 type  1   force =     0.00001099   -0.00012782    0.00874011
     atom    7 type  1   force =    -0.00012148    0.00023162    0.00892736
     atom    8 type  1   force =    -0.00012220   -0.00014551    0.00865943
     atom    9 type  1   force =     0.00016527    0.00023089    0.00891575
     atom   10 type  1   force =     0.00017129   -0.00014556    0.00864694
     atom   11 type  1   force =    -0.00006643    0.00024185    0.00898562
     atom   12 type  1   force =    -0.00007004   -0.00013528    0.00871922
     atom   13 type  1   force =     0.00074145    0.00026603    0.00883334
     atom   14 type  1   force =     0.00074127   -0.00011033    0.00857094
     atom   15 type  1   force =    -0.00129145    0.00038260   -0.00540964
     atom   16 type  1   force =    -0.00128668   -0.00003596   -0.00551451
     atom   17 type  1   force =    -0.00016739    0.00035640   -0.00536765
     atom   18 type  1   force =    -0.00016883   -0.00007522   -0.00547518
     atom   19 type  1   force =     0.00003669    0.00036188   -0.00530997
     atom   20 type  1   force =     0.00003300   -0.00006865   -0.00541745
     atom   21 type  1   force =    -0.00012201    0.00036006   -0.00533565
     atom   22 type  1   force =    -0.00012150   -0.00006226   -0.00543991
     atom   23 type  1   force =     0.00021218    0.00036092   -0.00537055
     atom   24 type  1   force =     0.00021271   -0.00006246   -0.00547755
     atom   25 type  1   force =    -0.00008693    0.00035656   -0.00541960
     atom   26 type  1   force =    -0.00008624   -0.00006944   -0.00552559
     atom   27 type  1   force =     0.00093296    0.00035992   -0.00542556
     atom   28 type  1   force =     0.00093070   -0.00007154   -0.00553354
     atom   29 type  1   force =    -0.00055431   -0.00012736    0.00861012
     atom   30 type  1   force =    -0.00055564   -0.00047923    0.00865744
     atom   31 type  1   force =    -0.00006517   -0.00014809    0.00877246
     atom   32 type  1   force =    -0.00006607   -0.00050151    0.00882060
     atom   33 type  1   force =     0.00003660   -0.00015745    0.00868939
     atom   34 type  1   force =     0.00003799   -0.00051374    0.00873441
     atom   35 type  1   force =     0.00002704   -0.00014627    0.00870086
     atom   36 type  1   force =     0.00002652   -0.00049986    0.00874701
     atom   37 type  1   force =    -0.00004674   -0.00015233    0.00866856
     atom   38 type  1   force =    -0.00004691   -0.00050654    0.00871550
     atom   39 type  1   force =     0.00008983   -0.00016097    0.00874458
     atom   40 type  1   force =     0.00008936   -0.00051321    0.00879218
     atom   41 type  1   force =     0.00087364   -0.00024684    0.00811145
     atom   42 type  1   force =     0.00087942   -0.00058758    0.00815747
     atom   43 type  1   force =    -0.00071807   -0.00012081   -0.00541065
     atom   44 type  1   force =    -0.00072306   -0.00061125   -0.00538487
     atom   45 type  1   force =    -0.00008458   -0.00012274   -0.00536716
     atom   46 type  1   force =    -0.00008233   -0.00061294   -0.00534396
     atom   47 type  1   force =     0.00009410   -0.00011570   -0.00534922
     atom   48 type  1   force =     0.00009978   -0.00060219   -0.00532686
     atom   49 type  1   force =     0.00004863   -0.00011917   -0.00538311
     atom   50 type  1   force =     0.00004454   -0.00060572   -0.00536463
     atom   51 type  1   force =    -0.00004720   -0.00011823   -0.00542267
     atom   52 type  1   force =    -0.00005202   -0.00060585   -0.00539863
     atom   53 type  1   force =     0.00009673   -0.00012785   -0.00548355
     atom   54 type  1   force =     0.00009846   -0.00061857   -0.00545622
     atom   55 type  1   force =     0.00110542   -0.00008519   -0.00546677
     atom   56 type  1   force =     0.00111284   -0.00056778   -0.00543879
     atom   57 type  1   force =    -0.00105335    0.00069217   -0.00844794
     atom   58 type  1   force =    -0.00104941    0.00023293   -0.00813636
     atom   59 type  1   force =    -0.00020882    0.00064518   -0.00902248
     atom   60 type  1   force =    -0.00021211    0.00017879   -0.00871093
     atom   61 type  1   force =    -0.00001413    0.00061492   -0.00903675
     atom   62 type  1   force =    -0.00001131    0.00014874   -0.00872527
     atom   63 type  1   force =    -0.00007413    0.00063272   -0.00896377
     atom   64 type  1   force =    -0.00007205    0.00016473   -0.00864938
     atom   65 type  1   force =     0.00024851    0.00063391   -0.00895481
     atom   66 type  1   force =     0.00024571    0.00016597   -0.00864480
     atom   67 type  1   force =    -0.00000423    0.00062187   -0.00902974
     atom   68 type  1   force =    -0.00000345    0.00015484   -0.00871898
     atom   69 type  1   force =     0.00073744    0.00059757   -0.00888586
     atom   70 type  1   force =     0.00074285    0.00012974   -0.00857387
     atom   71 type  1   force =    -0.00075994    0.00074182    0.00524241
     atom   72 type  1   force =    -0.00075924    0.00024500    0.00540542
     atom   73 type  1   force =    -0.00011198    0.00074470    0.00528504
     atom   74 type  1   force =    -0.00011501    0.00024710    0.00544863
     atom   75 type  1   force =     0.00010961    0.00073540    0.00529049
     atom   76 type  1   force =     0.00010361    0.00023811    0.00545613
     atom   77 type  1   force =     0.00007909    0.00073974    0.00527993
     atom   78 type  1   force =     0.00008379    0.00024091    0.00544307
     atom   79 type  1   force =    -0.00001427    0.00073806    0.00522526
     atom   80 type  1   force =    -0.00001508    0.00023967    0.00538863
     atom   81 type  1   force =     0.00011159    0.00074866    0.00522444
     atom   82 type  1   force =     0.00011135    0.00025216    0.00538667
     atom   83 type  1   force =     0.00108654    0.00069777    0.00522194
     atom   84 type  1   force =     0.00107920    0.00020712    0.00538284
     atom   85 type  1   force =    -0.00132481    0.00002040    0.00538578
     atom   86 type  1   force =    -0.00132967   -0.00072004    0.00557371
     atom   87 type  1   force =    -0.00020512    0.00005833    0.00543627
     atom   88 type  1   force =    -0.00020524   -0.00069558    0.00562314
     atom   89 type  1   force =     0.00001921    0.00005195    0.00543455
     atom   90 type  1   force =     0.00002312   -0.00070150    0.00561719
     atom   91 type  1   force =    -0.00009761    0.00004963    0.00544834
     atom   92 type  1   force =    -0.00009740   -0.00070450    0.00563480
     atom   93 type  1   force =     0.00024983    0.00004850    0.00540743
     atom   94 type  1   force =     0.00024736   -0.00070488    0.00559478
     atom   95 type  1   force =    -0.00005660    0.00005605    0.00537446
     atom   96 type  1   force =    -0.00005791   -0.00069659    0.00556193
     atom   97 type  1   force =     0.00092386    0.00005598    0.00535644
     atom   98 type  1   force =     0.00092373   -0.00069812    0.00554519
     atom   99 type  1   force =    -0.00063826    0.00009130   -0.00858985
     atom  100 type  1   force =    -0.00063717   -0.00026921   -0.00865029
     atom  101 type  1   force =    -0.00012914    0.00011327   -0.00874492
     atom  102 type  1   force =    -0.00012647   -0.00024390   -0.00880597
     atom  103 type  1   force =     0.00005395    0.00012813   -0.00866256
     atom  104 type  1   force =     0.00005513   -0.00023940   -0.00872265
     atom  105 type  1   force =     0.00009319    0.00011476   -0.00867817
     atom  106 type  1   force =     0.00009236   -0.00025583   -0.00873748
     atom  107 type  1   force =     0.00003217    0.00012002   -0.00865216
     atom  108 type  1   force =     0.00003180   -0.00024112   -0.00871388
     atom  109 type  1   force =     0.00012027    0.00012459   -0.00873333
     atom  110 type  1   force =     0.00011940   -0.00023269   -0.00879400
     atom  111 type  1   force =     0.00083154    0.00021211   -0.00809646
     atom  112 type  1   force =     0.00083484   -0.00014814   -0.00815760

     Total force =     0.076927     Total SCF correction =     0.003825
     Message from routine punch:
     Nothing written, as per user request (disk_io='none')
 
     init_run     :     48.15s CPU    105.38s WALL (       1 calls)
     electrons    :   2629.36s CPU   4990.06s WALL (       1 calls)
     forces       :      5.48s CPU      8.54s WALL (       1 calls)

     Called by init_run:
     wfcinit      :     43.97s CPU     90.11s WALL (       1 calls)
     potinit      :      1.89s CPU      8.75s WALL (       1 calls)
     hinit0       :      0.57s CPU      4.26s WALL (       1 calls)

     Called by electrons:
     c_bands      :   2247.85s CPU   4167.65s WALL (      22 calls)
     sum_band     :    353.93s CPU    760.10s WALL (      22 calls)
     v_of_rho     :     13.65s CPU     39.84s WALL (      22 calls)
     newd         :      5.76s CPU     10.58s WALL (      22 calls)
     mix_rho      :      4.26s CPU      9.35s WALL (      22 calls)

     Called by c_bands:
     init_us_2    :      2.25s CPU      4.46s WALL (      45 calls)
     cegterg      :   2166.72s CPU   4081.69s WALL (      22 calls)

     Called by *egterg:
     cdiaghg      :    441.86s CPU    501.51s WALL (     131 calls)
     h_psi        :   1564.90s CPU   3394.47s WALL (     133 calls)
     s_psi        :     31.60s CPU     36.01s WALL (     133 calls)
     g_psi        :      0.23s CPU      0.70s WALL (     110 calls)

     Called by h_psi:
     h_psi:calbec :     56.29s CPU     78.81s WALL (     133 calls)
     vloc_psi     :   1475.98s CPU   3276.81s WALL (     133 calls)
     add_vuspsi   :     32.31s CPU     38.33s WALL (     133 calls)

     General routines
     calbec       :     78.96s CPU    109.65s WALL (     159 calls)
     fft          :     13.26s CPU     43.18s WALL (     296 calls)
     ffts         :      2.21s CPU      5.61s WALL (      44 calls)
     fftw         :   1790.26s CPU   3973.08s WALL (   99908 calls)
     interpolate  :      1.86s CPU      4.61s WALL (      22 calls)
 
     Parallel routines
 
     PWSCF        :  44m49.88s CPU      1h25m WALL

 
   This run was terminated on:  13: 6:35  27Feb2025            

=------------------------------------------------------------------------------=
   JOB DONE.
=------------------------------------------------------------------------------=
