
     Program PWSCF v.7.3.1 starts on 26Feb2025 at 21:24: 3 

     This program is part of the open-source Quantum ESPRESSO suite
     for quantum simulation of materials; please cite
         "P. Giannozzi et al., J. Phys.:Condens. Matter 21 395502 (2009);
         "P. Giannozzi et al., J. Phys.:Condens. Matter 29 465901 (2017);
         "P. Giannozzi et al., J. Chem. Phys. 152 154105 (2020);
          URL http://www.quantum-espresso.org", 
     in publications or presentations arising from this work. More details at
     http://www.quantum-espresso.org/quote

     Parallel version (MPI), running on   256 processors

     MPI processes distributed on     2 nodes
     188794 MiB available memory on the printing compute node when the environment starts
 
     Reading input from pw.in

     Current dimensions of program PWSCF are:
     Max number of different atomic species (ntypx) = 10
     Max number of k-points (npk) =  40000
     Max angular momentum in pseudopotentials (lmaxx) =  4
 
     K-points division:     npool     =       4
     R & G space division:  proc/nbgrp/npool/nimage =      64
     Subspace diagonalization in iterative solution of the eigenvalue problem:
     one sub-group per band group will be used
     scalapack distributed-memory algorithm (size of sub-group:  8*  8 procs)

     Message from routine divide_et_impera:
     suboptimal parallelization: some nodes have no k-points
 
     Parallelization info
     --------------------
     sticks:   dense  smooth     PW     G-vecs:    dense   smooth      PW
     Min         184      92     24                33716    11922    1636
     Max         185      93     25                33729    11933    1649
     Sum       11837    5915   1569              2158381   763307  105125
 
     Using Slab Decomposition
 

     Title: 
      DEISA pw benchmark                                                        


     bravais-lattice index     =            8
     lattice parameter (alat)  =      38.7583  a.u.
     unit-cell volume          =   45191.4962 (a.u.)^3
     number of atoms/cell      =          112
     number of atomic types    =            1
     number of electrons       =      1232.00
     number of Kohn-Sham states=          800
     kinetic-energy cutoff     =      25.0000  Ry
     charge density cutoff     =     200.0000  Ry
     scf convergence threshold =      1.0E-06
     mixing beta               =       0.7000
     number of iterations used =            8  plain     mixing
     Exchange-correlation=  SLA  PW   PBE  PBE
                           (   1   4   3   4   0   0   0)

     celldm(1)=  38.758300  celldm(2)=   0.494393  celldm(3)=   1.569966
     celldm(4)=   0.000000  celldm(5)=   0.000000  celldm(6)=   0.000000

     crystal axes: (cart. coord. in units of alat)
               a(1) = (   1.000000   0.000000   0.000000 )  
               a(2) = (   0.000000   0.494393   0.000000 )  
               a(3) = (   0.000000   0.000000   1.569966 )  

     reciprocal axes: (cart. coord. in units 2 pi/alat)
               b(1) = (  1.000000  0.000000  0.000000 )  
               b(2) = (  0.000000  2.022682  0.000000 )  
               b(3) = (  0.000000  0.000000  0.636956 )  


     PseudoPot. # 1 for Au read from file:
     ./Au.pbe-nd-van.UPF
     MD5 check sum: deb5c07af10777505a79e28f5b4b4115
     Pseudo is Ultrasoft + core correction, Zval = 11.0
     Generated by new atomic code, or converted to UPF format
     Using radial grid of  985 points,  3 beta functions with: 
                l(1) =   1
                l(2) =   2
                l(3) =   2
     Q(r) pseudized with  8 coefficients,  rinner =    1.100   1.100   1.100
                                                       1.100   1.100

     atomic species   valence    mass     pseudopotential
     AU               11.00   196.96000     Au( 1.00)

     No symmetry found



   Cartesian axes

     site n.     atom                  positions (alat units)
         1        AU     tau(   1) = (   1.4278394   1.9784974   0.3497317  )
         2        AU     tau(   2) = (   1.4278394   1.7313986   0.3497317  )
         3        AU     tau(   3) = (   1.5706478   1.9784974   0.3497317  )
         4        AU     tau(   4) = (   1.5706478   1.7313986   0.3497317  )
         5        AU     tau(   5) = (   1.7134072   1.9784974   0.3497317  )
         6        AU     tau(   6) = (   1.7134072   1.7313986   0.3497317  )
         7        AU     tau(   7) = (   1.8562156   1.9784974   0.3497317  )
         8        AU     tau(   8) = (   1.8562156   1.7313986   0.3497317  )
         9        AU     tau(   9) = (   1.9989753   1.9784974   0.3497317  )
        10        AU     tau(  10) = (   1.9989753   1.7313986   0.3497317  )
        11        AU     tau(  11) = (   2.1417836   1.9784974   0.3497317  )
        12        AU     tau(  12) = (   2.1417836   1.7313986   0.3497317  )
        13        AU     tau(  13) = (   2.2845431   1.9784974   0.3497317  )
        14        AU     tau(  14) = (   2.2845431   1.7313986   0.3497317  )
        15        AU     tau(  15) = (   1.4278394   2.0609450   0.2331545  )
        16        AU     tau(  16) = (   1.4278394   1.8138461   0.2331545  )
        17        AU     tau(  17) = (   1.5706478   2.0609450   0.2331545  )
        18        AU     tau(  18) = (   1.5706478   1.8138461   0.2331545  )
        19        AU     tau(  19) = (   1.7134072   2.0609450   0.2331545  )
        20        AU     tau(  20) = (   1.7134072   1.8138461   0.2331545  )
        21        AU     tau(  21) = (   1.8562156   2.0609450   0.2331545  )
        22        AU     tau(  22) = (   1.8562156   1.8138461   0.2331545  )
        23        AU     tau(  23) = (   1.9989753   2.0609450   0.2331545  )
        24        AU     tau(  24) = (   1.9989753   1.8138461   0.2331545  )
        25        AU     tau(  25) = (   2.1417836   2.0609450   0.2331545  )
        26        AU     tau(  26) = (   2.1417836   1.8138461   0.2331545  )
        27        AU     tau(  27) = (   2.2845431   2.0609450   0.2331545  )
        28        AU     tau(  28) = (   2.2845431   1.8138461   0.2331545  )
        29        AU     tau(  29) = (   1.4992193   2.1021445   0.3497317  )
        30        AU     tau(  30) = (   1.4992193   1.8550455   0.3497317  )
        31        AU     tau(  31) = (   1.6420276   2.1021445   0.3497317  )
        32        AU     tau(  32) = (   1.6420276   1.8550455   0.3497317  )
        33        AU     tau(  33) = (   1.7847871   2.1021445   0.3497317  )
        34        AU     tau(  34) = (   1.7847871   1.8550455   0.3497317  )
        35        AU     tau(  35) = (   1.9275954   2.1021445   0.3497317  )
        36        AU     tau(  36) = (   1.9275954   1.8550455   0.3497317  )
        37        AU     tau(  37) = (   2.0704038   2.1021445   0.3497317  )
        38        AU     tau(  38) = (   2.0704038   1.8550455   0.3497317  )
        39        AU     tau(  39) = (   2.2131632   2.1021445   0.3497317  )
        40        AU     tau(  40) = (   2.2131632   1.8550455   0.3497317  )
        41        AU     tau(  41) = (   2.3559716   2.1021445   0.3497317  )
        42        AU     tau(  42) = (   2.3559716   1.8550455   0.3497317  )
        43        AU     tau(  43) = (   1.4992193   1.6901992   0.2331545  )
        44        AU     tau(  44) = (   1.4992193   1.9374930   0.2331545  )
        45        AU     tau(  45) = (   1.6420276   1.6901992   0.2331545  )
        46        AU     tau(  46) = (   1.6420276   1.9374930   0.2331545  )
        47        AU     tau(  47) = (   1.7847871   1.6901992   0.2331545  )
        48        AU     tau(  48) = (   1.7847871   1.9374930   0.2331545  )
        49        AU     tau(  49) = (   1.9275954   1.6901992   0.2331545  )
        50        AU     tau(  50) = (   1.9275954   1.9374930   0.2331545  )
        51        AU     tau(  51) = (   2.0704038   1.6901992   0.2331545  )
        52        AU     tau(  52) = (   2.0704038   1.9374930   0.2331545  )
        53        AU     tau(  53) = (   2.2131632   1.6901992   0.2331545  )
        54        AU     tau(  54) = (   2.2131632   1.9374930   0.2331545  )
        55        AU     tau(  55) = (   2.3559716   1.6901992   0.2331545  )
        56        AU     tau(  56) = (   2.3559716   1.9374930   0.2331545  )
        57        AU     tau(  57) = (   1.4278394   1.9784974   0.0000000  )
        58        AU     tau(  58) = (   1.4278394   1.7313986   0.0000000  )
        59        AU     tau(  59) = (   1.5706478   1.9784974   0.0000000  )
        60        AU     tau(  60) = (   1.5706478   1.7313986   0.0000000  )
        61        AU     tau(  61) = (   1.7134072   1.9784974   0.0000000  )
        62        AU     tau(  62) = (   1.7134072   1.7313986   0.0000000  )
        63        AU     tau(  63) = (   1.8562156   1.9784974   0.0000000  )
        64        AU     tau(  64) = (   1.8562156   1.7313986   0.0000000  )
        65        AU     tau(  65) = (   1.9989753   1.9784974   0.0000000  )
        66        AU     tau(  66) = (   1.9989753   1.7313986   0.0000000  )
        67        AU     tau(  67) = (   2.1417836   1.9784974   0.0000000  )
        68        AU     tau(  68) = (   2.1417836   1.7313986   0.0000000  )
        69        AU     tau(  69) = (   2.2845431   1.9784974   0.0000000  )
        70        AU     tau(  70) = (   2.2845431   1.7313986   0.0000000  )
        71        AU     tau(  71) = (   1.4992193   2.0196968   0.1165772  )
        72        AU     tau(  72) = (   1.4992193   1.7725979   0.1165772  )
        73        AU     tau(  73) = (   1.6420276   2.0196968   0.1165772  )
        74        AU     tau(  74) = (   1.6420276   1.7725979   0.1165772  )
        75        AU     tau(  75) = (   1.7847871   2.0196968   0.1165772  )
        76        AU     tau(  76) = (   1.7847871   1.7725979   0.1165772  )
        77        AU     tau(  77) = (   1.9275954   2.0196968   0.1165772  )
        78        AU     tau(  78) = (   1.9275954   1.7725979   0.1165772  )
        79        AU     tau(  79) = (   2.0704038   2.0196968   0.1165772  )
        80        AU     tau(  80) = (   2.0704038   1.7725979   0.1165772  )
        81        AU     tau(  81) = (   2.2131632   2.0196968   0.1165772  )
        82        AU     tau(  82) = (   2.2131632   1.7725979   0.1165772  )
        83        AU     tau(  83) = (   2.3559716   2.0196968   0.1165772  )
        84        AU     tau(  84) = (   2.3559716   1.7725979   0.1165772  )
        85        AU     tau(  85) = (   1.4278394   2.1433437   0.1165772  )
        86        AU     tau(  86) = (   1.4278394   1.8962937   0.1165772  )
        87        AU     tau(  87) = (   1.5706478   2.1433437   0.1165772  )
        88        AU     tau(  88) = (   1.5706478   1.8962937   0.1165772  )
        89        AU     tau(  89) = (   1.7134072   2.1433437   0.1165772  )
        90        AU     tau(  90) = (   1.7134072   1.8962937   0.1165772  )
        91        AU     tau(  91) = (   1.8562156   2.1433437   0.1165772  )
        92        AU     tau(  92) = (   1.8562156   1.8962937   0.1165772  )
        93        AU     tau(  93) = (   1.9989753   2.1433437   0.1165772  )
        94        AU     tau(  94) = (   1.9989753   1.8962937   0.1165772  )
        95        AU     tau(  95) = (   2.1417836   2.1433437   0.1165772  )
        96        AU     tau(  96) = (   2.1417836   1.8962937   0.1165772  )
        97        AU     tau(  97) = (   2.2845431   2.1433437   0.1165772  )
        98        AU     tau(  98) = (   2.2845431   1.8962937   0.1165772  )
        99        AU     tau(  99) = (   1.4992193   2.1021445   0.0000000  )
       100        AU     tau( 100) = (   1.4992193   1.8550455   0.0000000  )
       101        AU     tau( 101) = (   1.6420276   2.1021445   0.0000000  )
       102        AU     tau( 102) = (   1.6420276   1.8550455   0.0000000  )
       103        AU     tau( 103) = (   1.7847871   2.1021445   0.0000000  )
       104        AU     tau( 104) = (   1.7847871   1.8550455   0.0000000  )
       105        AU     tau( 105) = (   1.9275954   2.1021445   0.0000000  )
       106        AU     tau( 106) = (   1.9275954   1.8550455   0.0000000  )
       107        AU     tau( 107) = (   2.0704038   2.1021445   0.0000000  )
       108        AU     tau( 108) = (   2.0704038   1.8550455   0.0000000  )
       109        AU     tau( 109) = (   2.2131632   2.1021445   0.0000000  )
       110        AU     tau( 110) = (   2.2131632   1.8550455   0.0000000  )
       111        AU     tau( 111) = (   2.3559716   2.1021445   0.0000000  )
       112        AU     tau( 112) = (   2.3559716   1.8550455   0.0000000  )

     number of k points=     2  Marzari-Vanderbilt smearing, width (Ry)=  0.0500
                       cart. coord. in units 2pi/alat
        k(    1) = (   0.2500000   0.5056706   0.0000000), wk =   1.0000000
        k(    2) = (  -0.2500000   0.5056706   0.0000000), wk =   1.0000000

     Dense  grid:  2158381 G-vectors     FFT dimensions: ( 180,  90, 288)

     Smooth grid:   763307 G-vectors     FFT dimensions: ( 125,  64, 200)

     Estimated max dynamical RAM per process >     199.77 MB

     Estimated total dynamical RAM >      48.40 GB

     Initial potential from superposition of free atoms

     starting charge    1230.6995, renormalised to    1232.0000

     negative rho (up, down):  3.043E+00 0.000E+00
     Starting wfcs are 1008 randomized atomic wfcs

     total cpu time spent up to now is       25.9 secs

     Self-consistent Calculation

     iteration #  1     ecut=    25.00 Ry     beta= 0.70
     Davidson diagonalization with overlap
     ethr =  1.00E-02,  avg # of iterations =  5.0

     Threshold (ethr) on eigenvalues was too large:
     Diagonalizing with lowered threshold

     Davidson diagonalization with overlap
     c_bands:  3 eigenvalues not converged
     ethr =  4.37E-04,  avg # of iterations = 19.5

     negative rho (up, down):  2.992E+00 0.000E+00

     total cpu time spent up to now is      131.3 secs

     total energy              =  -11423.49026898 Ry
     estimated scf accuracy    <       6.31573448 Ry

     iteration #  2     ecut=    25.00 Ry     beta= 0.70
     Davidson diagonalization with overlap
     ethr =  5.13E-04,  avg # of iterations = 15.0

     negative rho (up, down):  2.993E+00 0.000E+00

     total cpu time spent up to now is      205.9 secs

     total energy              =  -11408.38245219 Ry
     estimated scf accuracy    <     196.16441320 Ry

     iteration #  3     ecut=    25.00 Ry     beta= 0.70
     Davidson diagonalization with overlap
     ethr =  5.13E-04,  avg # of iterations = 11.0

     negative rho (up, down):  3.038E+00 0.000E+00

     total cpu time spent up to now is      264.3 secs

     total energy              =  -11426.41079733 Ry
     estimated scf accuracy    <       5.03444259 Ry

     iteration #  4     ecut=    25.00 Ry     beta= 0.70
     Davidson diagonalization with overlap
     ethr =  4.09E-04,  avg # of iterations =  2.0

     negative rho (up, down):  3.045E+00 0.000E+00

     total cpu time spent up to now is      289.1 secs

     total energy              =  -11426.62194003 Ry
     estimated scf accuracy    <       4.29203262 Ry

     iteration #  5     ecut=    25.00 Ry     beta= 0.70
     Davidson diagonalization with overlap
     ethr =  3.48E-04,  avg # of iterations =  2.0

     negative rho (up, down):  3.061E+00 0.000E+00

     total cpu time spent up to now is      314.4 secs

     total energy              =  -11426.86854529 Ry
     estimated scf accuracy    <       4.85202623 Ry

     iteration #  6     ecut=    25.00 Ry     beta= 0.70
     Davidson diagonalization with overlap
     ethr =  3.48E-04,  avg # of iterations =  1.0

     negative rho (up, down):  3.070E+00 0.000E+00

     total cpu time spent up to now is      335.0 secs

     total energy              =  -11427.08075605 Ry
     estimated scf accuracy    <       0.09057439 Ry

     iteration #  7     ecut=    25.00 Ry     beta= 0.70
     Davidson diagonalization with overlap

===================================================================================
=   BAD TERMINATION OF ONE OF YOUR APPLICATION PROCESSES
=   RANK 0 PID 51860 RUNNING AT r229
=   KILLED BY SIGNAL: 9 (Killed)
===================================================================================

===================================================================================
=   BAD TERMINATION OF ONE OF YOUR APPLICATION PROCESSES
=   RANK 1 PID 51861 RUNNING AT r229
=   KILLED BY SIGNAL: 9 (Killed)
===================================================================================

===================================================================================
=   BAD TERMINATION OF ONE OF YOUR APPLICATION PROCESSES
=   RANK 2 PID 51862 RUNNING AT r229
=   KILLED BY SIGNAL: 9 (Killed)
===================================================================================

===================================================================================
=   BAD TERMINATION OF ONE OF YOUR APPLICATION PROCESSES
=   RANK 3 PID 51863 RUNNING AT r229
=   KILLED BY SIGNAL: 9 (Killed)
===================================================================================

===================================================================================
=   BAD TERMINATION OF ONE OF YOUR APPLICATION PROCESSES
=   RANK 4 PID 51864 RUNNING AT r229
=   KILLED BY SIGNAL: 9 (Killed)
===================================================================================

===================================================================================
=   BAD TERMINATION OF ONE OF YOUR APPLICATION PROCESSES
=   RANK 5 PID 51865 RUNNING AT r229
=   KILLED BY SIGNAL: 9 (Killed)
===================================================================================

===================================================================================
=   BAD TERMINATION OF ONE OF YOUR APPLICATION PROCESSES
=   RANK 6 PID 51866 RUNNING AT r229
=   KILLED BY SIGNAL: 9 (Killed)
===================================================================================

===================================================================================
=   BAD TERMINATION OF ONE OF YOUR APPLICATION PROCESSES
=   RANK 7 PID 51867 RUNNING AT r229
=   KILLED BY SIGNAL: 9 (Killed)
===================================================================================

===================================================================================
=   BAD TERMINATION OF ONE OF YOUR APPLICATION PROCESSES
=   RANK 8 PID 51868 RUNNING AT r229
=   KILLED BY SIGNAL: 9 (Killed)
===================================================================================

===================================================================================
=   BAD TERMINATION OF ONE OF YOUR APPLICATION PROCESSES
=   RANK 9 PID 51869 RUNNING AT r229
=   KILLED BY SIGNAL: 9 (Killed)
===================================================================================

===================================================================================
=   BAD TERMINATION OF ONE OF YOUR APPLICATION PROCESSES
=   RANK 10 PID 51870 RUNNING AT r229
=   KILLED BY SIGNAL: 9 (Killed)
===================================================================================

===================================================================================
=   BAD TERMINATION OF ONE OF YOUR APPLICATION PROCESSES
=   RANK 11 PID 51871 RUNNING AT r229
=   KILLED BY SIGNAL: 9 (Killed)
===================================================================================

===================================================================================
=   BAD TERMINATION OF ONE OF YOUR APPLICATION PROCESSES
=   RANK 12 PID 51872 RUNNING AT r229
=   KILLED BY SIGNAL: 9 (Killed)
===================================================================================

===================================================================================
=   BAD TERMINATION OF ONE OF YOUR APPLICATION PROCESSES
=   RANK 13 PID 51873 RUNNING AT r229
=   KILLED BY SIGNAL: 9 (Killed)
===================================================================================

===================================================================================
=   BAD TERMINATION OF ONE OF YOUR APPLICATION PROCESSES
=   RANK 14 PID 51874 RUNNING AT r229
=   KILLED BY SIGNAL: 9 (Killed)
===================================================================================

===================================================================================
=   BAD TERMINATION OF ONE OF YOUR APPLICATION PROCESSES
=   RANK 15 PID 51875 RUNNING AT r229
=   KILLED BY SIGNAL: 9 (Killed)
===================================================================================

===================================================================================
=   BAD TERMINATION OF ONE OF YOUR APPLICATION PROCESSES
=   RANK 16 PID 51876 RUNNING AT r229
=   KILLED BY SIGNAL: 9 (Killed)
===================================================================================

===================================================================================
=   BAD TERMINATION OF ONE OF YOUR APPLICATION PROCESSES
=   RANK 17 PID 51877 RUNNING AT r229
=   KILLED BY SIGNAL: 9 (Killed)
===================================================================================

===================================================================================
=   BAD TERMINATION OF ONE OF YOUR APPLICATION PROCESSES
=   RANK 18 PID 51878 RUNNING AT r229
=   KILLED BY SIGNAL: 9 (Killed)
===================================================================================

===================================================================================
=   BAD TERMINATION OF ONE OF YOUR APPLICATION PROCESSES
=   RANK 19 PID 51879 RUNNING AT r229
=   KILLED BY SIGNAL: 9 (Killed)
===================================================================================

===================================================================================
=   BAD TERMINATION OF ONE OF YOUR APPLICATION PROCESSES
=   RANK 20 PID 51880 RUNNING AT r229
=   KILLED BY SIGNAL: 9 (Killed)
===================================================================================

===================================================================================
=   BAD TERMINATION OF ONE OF YOUR APPLICATION PROCESSES
=   RANK 21 PID 51881 RUNNING AT r229
=   KILLED BY SIGNAL: 9 (Killed)
===================================================================================

===================================================================================
=   BAD TERMINATION OF ONE OF YOUR APPLICATION PROCESSES
=   RANK 22 PID 51882 RUNNING AT r229
=   KILLED BY SIGNAL: 9 (Killed)
===================================================================================

===================================================================================
=   BAD TERMINATION OF ONE OF YOUR APPLICATION PROCESSES
=   RANK 23 PID 51883 RUNNING AT r229
=   KILLED BY SIGNAL: 9 (Killed)
===================================================================================

===================================================================================
=   BAD TERMINATION OF ONE OF YOUR APPLICATION PROCESSES
=   RANK 24 PID 51884 RUNNING AT r229
=   KILLED BY SIGNAL: 9 (Killed)
===================================================================================

===================================================================================
=   BAD TERMINATION OF ONE OF YOUR APPLICATION PROCESSES
=   RANK 25 PID 51885 RUNNING AT r229
=   KILLED BY SIGNAL: 9 (Killed)
===================================================================================

===================================================================================
=   BAD TERMINATION OF ONE OF YOUR APPLICATION PROCESSES
=   RANK 26 PID 51886 RUNNING AT r229
=   KILLED BY SIGNAL: 9 (Killed)
===================================================================================

===================================================================================
=   BAD TERMINATION OF ONE OF YOUR APPLICATION PROCESSES
=   RANK 27 PID 51887 RUNNING AT r229
=   KILLED BY SIGNAL: 9 (Killed)
===================================================================================

===================================================================================
=   BAD TERMINATION OF ONE OF YOUR APPLICATION PROCESSES
=   RANK 28 PID 51888 RUNNING AT r229
=   KILLED BY SIGNAL: 9 (Killed)
===================================================================================

===================================================================================
=   BAD TERMINATION OF ONE OF YOUR APPLICATION PROCESSES
=   RANK 29 PID 51889 RUNNING AT r229
=   KILLED BY SIGNAL: 9 (Killed)
===================================================================================

===================================================================================
=   BAD TERMINATION OF ONE OF YOUR APPLICATION PROCESSES
=   RANK 30 PID 51890 RUNNING AT r229
=   KILLED BY SIGNAL: 9 (Killed)
===================================================================================

===================================================================================
=   BAD TERMINATION OF ONE OF YOUR APPLICATION PROCESSES
=   RANK 31 PID 51891 RUNNING AT r229
=   KILLED BY SIGNAL: 9 (Killed)
===================================================================================

===================================================================================
=   BAD TERMINATION OF ONE OF YOUR APPLICATION PROCESSES
=   RANK 32 PID 51892 RUNNING AT r229
=   KILLED BY SIGNAL: 9 (Killed)
===================================================================================

===================================================================================
=   BAD TERMINATION OF ONE OF YOUR APPLICATION PROCESSES
=   RANK 33 PID 51893 RUNNING AT r229
=   KILLED BY SIGNAL: 9 (Killed)
===================================================================================

===================================================================================
=   BAD TERMINATION OF ONE OF YOUR APPLICATION PROCESSES
=   RANK 34 PID 51894 RUNNING AT r229
=   KILLED BY SIGNAL: 9 (Killed)
===================================================================================

===================================================================================
=   BAD TERMINATION OF ONE OF YOUR APPLICATION PROCESSES
=   RANK 35 PID 51895 RUNNING AT r229
=   KILLED BY SIGNAL: 9 (Killed)
===================================================================================

===================================================================================
=   BAD TERMINATION OF ONE OF YOUR APPLICATION PROCESSES
=   RANK 36 PID 51896 RUNNING AT r229
=   KILLED BY SIGNAL: 9 (Killed)
===================================================================================

===================================================================================
=   BAD TERMINATION OF ONE OF YOUR APPLICATION PROCESSES
=   RANK 37 PID 51897 RUNNING AT r229
=   KILLED BY SIGNAL: 9 (Killed)
===================================================================================

===================================================================================
=   BAD TERMINATION OF ONE OF YOUR APPLICATION PROCESSES
=   RANK 38 PID 51898 RUNNING AT r229
=   KILLED BY SIGNAL: 9 (Killed)
===================================================================================

===================================================================================
=   BAD TERMINATION OF ONE OF YOUR APPLICATION PROCESSES
=   RANK 39 PID 51899 RUNNING AT r229
=   KILLED BY SIGNAL: 9 (Killed)
===================================================================================

===================================================================================
=   BAD TERMINATION OF ONE OF YOUR APPLICATION PROCESSES
=   RANK 40 PID 51900 RUNNING AT r229
=   KILLED BY SIGNAL: 9 (Killed)
===================================================================================

===================================================================================
=   BAD TERMINATION OF ONE OF YOUR APPLICATION PROCESSES
=   RANK 41 PID 51901 RUNNING AT r229
=   KILLED BY SIGNAL: 9 (Killed)
===================================================================================

===================================================================================
=   BAD TERMINATION OF ONE OF YOUR APPLICATION PROCESSES
=   RANK 42 PID 51902 RUNNING AT r229
=   KILLED BY SIGNAL: 9 (Killed)
===================================================================================

===================================================================================
=   BAD TERMINATION OF ONE OF YOUR APPLICATION PROCESSES
=   RANK 43 PID 51903 RUNNING AT r229
=   KILLED BY SIGNAL: 9 (Killed)
===================================================================================

===================================================================================
=   BAD TERMINATION OF ONE OF YOUR APPLICATION PROCESSES
=   RANK 44 PID 51904 RUNNING AT r229
=   KILLED BY SIGNAL: 9 (Killed)
===================================================================================

===================================================================================
=   BAD TERMINATION OF ONE OF YOUR APPLICATION PROCESSES
=   RANK 45 PID 51905 RUNNING AT r229
=   KILLED BY SIGNAL: 9 (Killed)
===================================================================================

===================================================================================
=   BAD TERMINATION OF ONE OF YOUR APPLICATION PROCESSES
=   RANK 46 PID 51906 RUNNING AT r229
=   KILLED BY SIGNAL: 9 (Killed)
===================================================================================

===================================================================================
=   BAD TERMINATION OF ONE OF YOUR APPLICATION PROCESSES
=   RANK 47 PID 51907 RUNNING AT r229
=   KILLED BY SIGNAL: 9 (Killed)
===================================================================================

===================================================================================
=   BAD TERMINATION OF ONE OF YOUR APPLICATION PROCESSES
=   RANK 48 PID 51908 RUNNING AT r229
=   KILLED BY SIGNAL: 9 (Killed)
===================================================================================

===================================================================================
=   BAD TERMINATION OF ONE OF YOUR APPLICATION PROCESSES
=   RANK 49 PID 51909 RUNNING AT r229
=   KILLED BY SIGNAL: 9 (Killed)
===================================================================================

===================================================================================
=   BAD TERMINATION OF ONE OF YOUR APPLICATION PROCESSES
=   RANK 50 PID 51910 RUNNING AT r229
=   KILLED BY SIGNAL: 9 (Killed)
===================================================================================

===================================================================================
=   BAD TERMINATION OF ONE OF YOUR APPLICATION PROCESSES
=   RANK 51 PID 51911 RUNNING AT r229
=   KILLED BY SIGNAL: 9 (Killed)
===================================================================================

===================================================================================
=   BAD TERMINATION OF ONE OF YOUR APPLICATION PROCESSES
=   RANK 52 PID 51912 RUNNING AT r229
=   KILLED BY SIGNAL: 9 (Killed)
===================================================================================

===================================================================================
=   BAD TERMINATION OF ONE OF YOUR APPLICATION PROCESSES
=   RANK 53 PID 51913 RUNNING AT r229
=   KILLED BY SIGNAL: 9 (Killed)
===================================================================================

===================================================================================
=   BAD TERMINATION OF ONE OF YOUR APPLICATION PROCESSES
=   RANK 54 PID 51914 RUNNING AT r229
=   KILLED BY SIGNAL: 9 (Killed)
===================================================================================

===================================================================================
=   BAD TERMINATION OF ONE OF YOUR APPLICATION PROCESSES
=   RANK 55 PID 51915 RUNNING AT r229
=   KILLED BY SIGNAL: 9 (Killed)
===================================================================================

===================================================================================
=   BAD TERMINATION OF ONE OF YOUR APPLICATION PROCESSES
=   RANK 56 PID 51916 RUNNING AT r229
=   KILLED BY SIGNAL: 9 (Killed)
===================================================================================

===================================================================================
=   BAD TERMINATION OF ONE OF YOUR APPLICATION PROCESSES
=   RANK 57 PID 51917 RUNNING AT r229
=   KILLED BY SIGNAL: 9 (Killed)
===================================================================================

===================================================================================
=   BAD TERMINATION OF ONE OF YOUR APPLICATION PROCESSES
=   RANK 58 PID 51918 RUNNING AT r229
=   KILLED BY SIGNAL: 9 (Killed)
===================================================================================

===================================================================================
=   BAD TERMINATION OF ONE OF YOUR APPLICATION PROCESSES
=   RANK 59 PID 51919 RUNNING AT r229
=   KILLED BY SIGNAL: 9 (Killed)
===================================================================================

===================================================================================
=   BAD TERMINATION OF ONE OF YOUR APPLICATION PROCESSES
=   RANK 60 PID 51920 RUNNING AT r229
=   KILLED BY SIGNAL: 9 (Killed)
===================================================================================

===================================================================================
=   BAD TERMINATION OF ONE OF YOUR APPLICATION PROCESSES
=   RANK 61 PID 51921 RUNNING AT r229
=   KILLED BY SIGNAL: 9 (Killed)
===================================================================================

===================================================================================
=   BAD TERMINATION OF ONE OF YOUR APPLICATION PROCESSES
=   RANK 62 PID 51922 RUNNING AT r229
=   KILLED BY SIGNAL: 9 (Killed)
===================================================================================

===================================================================================
=   BAD TERMINATION OF ONE OF YOUR APPLICATION PROCESSES
=   RANK 63 PID 51923 RUNNING AT r229
=   KILLED BY SIGNAL: 9 (Killed)
===================================================================================

===================================================================================
=   BAD TERMINATION OF ONE OF YOUR APPLICATION PROCESSES
=   RANK 64 PID 51924 RUNNING AT r229
=   KILLED BY SIGNAL: 9 (Killed)
===================================================================================

===================================================================================
=   BAD TERMINATION OF ONE OF YOUR APPLICATION PROCESSES
=   RANK 65 PID 51925 RUNNING AT r229
=   KILLED BY SIGNAL: 9 (Killed)
===================================================================================

===================================================================================
=   BAD TERMINATION OF ONE OF YOUR APPLICATION PROCESSES
=   RANK 66 PID 51926 RUNNING AT r229
=   KILLED BY SIGNAL: 9 (Killed)
===================================================================================

===================================================================================
=   BAD TERMINATION OF ONE OF YOUR APPLICATION PROCESSES
=   RANK 67 PID 51927 RUNNING AT r229
=   KILLED BY SIGNAL: 9 (Killed)
===================================================================================

===================================================================================
=   BAD TERMINATION OF ONE OF YOUR APPLICATION PROCESSES
=   RANK 68 PID 51928 RUNNING AT r229
=   KILLED BY SIGNAL: 9 (Killed)
===================================================================================

===================================================================================
=   BAD TERMINATION OF ONE OF YOUR APPLICATION PROCESSES
=   RANK 69 PID 51929 RUNNING AT r229
=   KILLED BY SIGNAL: 9 (Killed)
===================================================================================

===================================================================================
=   BAD TERMINATION OF ONE OF YOUR APPLICATION PROCESSES
=   RANK 70 PID 51930 RUNNING AT r229
=   KILLED BY SIGNAL: 9 (Killed)
===================================================================================

===================================================================================
=   BAD TERMINATION OF ONE OF YOUR APPLICATION PROCESSES
=   RANK 71 PID 51931 RUNNING AT r229
=   KILLED BY SIGNAL: 9 (Killed)
===================================================================================

===================================================================================
=   BAD TERMINATION OF ONE OF YOUR APPLICATION PROCESSES
=   RANK 72 PID 51932 RUNNING AT r229
=   KILLED BY SIGNAL: 9 (Killed)
===================================================================================

===================================================================================
=   BAD TERMINATION OF ONE OF YOUR APPLICATION PROCESSES
=   RANK 73 PID 51933 RUNNING AT r229
=   KILLED BY SIGNAL: 9 (Killed)
===================================================================================

===================================================================================
=   BAD TERMINATION OF ONE OF YOUR APPLICATION PROCESSES
=   RANK 74 PID 51934 RUNNING AT r229
=   KILLED BY SIGNAL: 9 (Killed)
===================================================================================

===================================================================================
=   BAD TERMINATION OF ONE OF YOUR APPLICATION PROCESSES
=   RANK 75 PID 51935 RUNNING AT r229
=   KILLED BY SIGNAL: 9 (Killed)
===================================================================================

===================================================================================
=   BAD TERMINATION OF ONE OF YOUR APPLICATION PROCESSES
=   RANK 76 PID 51936 RUNNING AT r229
=   KILLED BY SIGNAL: 9 (Killed)
===================================================================================

===================================================================================
=   BAD TERMINATION OF ONE OF YOUR APPLICATION PROCESSES
=   RANK 77 PID 51937 RUNNING AT r229
=   KILLED BY SIGNAL: 9 (Killed)
===================================================================================

===================================================================================
=   BAD TERMINATION OF ONE OF YOUR APPLICATION PROCESSES
=   RANK 78 PID 51938 RUNNING AT r229
=   KILLED BY SIGNAL: 9 (Killed)
===================================================================================

===================================================================================
=   BAD TERMINATION OF ONE OF YOUR APPLICATION PROCESSES
=   RANK 79 PID 51939 RUNNING AT r229
=   KILLED BY SIGNAL: 9 (Killed)
===================================================================================

===================================================================================
=   BAD TERMINATION OF ONE OF YOUR APPLICATION PROCESSES
=   RANK 80 PID 51940 RUNNING AT r229
=   KILLED BY SIGNAL: 9 (Killed)
===================================================================================

===================================================================================
=   BAD TERMINATION OF ONE OF YOUR APPLICATION PROCESSES
=   RANK 81 PID 51941 RUNNING AT r229
=   KILLED BY SIGNAL: 9 (Killed)
===================================================================================

===================================================================================
=   BAD TERMINATION OF ONE OF YOUR APPLICATION PROCESSES
=   RANK 82 PID 51942 RUNNING AT r229
=   KILLED BY SIGNAL: 9 (Killed)
===================================================================================

===================================================================================
=   BAD TERMINATION OF ONE OF YOUR APPLICATION PROCESSES
=   RANK 83 PID 51943 RUNNING AT r229
=   KILLED BY SIGNAL: 9 (Killed)
===================================================================================

===================================================================================
=   BAD TERMINATION OF ONE OF YOUR APPLICATION PROCESSES
=   RANK 84 PID 51944 RUNNING AT r229
=   KILLED BY SIGNAL: 9 (Killed)
===================================================================================

===================================================================================
=   BAD TERMINATION OF ONE OF YOUR APPLICATION PROCESSES
=   RANK 85 PID 51945 RUNNING AT r229
=   KILLED BY SIGNAL: 9 (Killed)
===================================================================================

===================================================================================
=   BAD TERMINATION OF ONE OF YOUR APPLICATION PROCESSES
=   RANK 86 PID 51946 RUNNING AT r229
=   KILLED BY SIGNAL: 9 (Killed)
===================================================================================

===================================================================================
=   BAD TERMINATION OF ONE OF YOUR APPLICATION PROCESSES
=   RANK 87 PID 51947 RUNNING AT r229
=   KILLED BY SIGNAL: 9 (Killed)
===================================================================================

===================================================================================
=   BAD TERMINATION OF ONE OF YOUR APPLICATION PROCESSES
=   RANK 88 PID 51948 RUNNING AT r229
=   KILLED BY SIGNAL: 9 (Killed)
===================================================================================

===================================================================================
=   BAD TERMINATION OF ONE OF YOUR APPLICATION PROCESSES
=   RANK 89 PID 51949 RUNNING AT r229
=   KILLED BY SIGNAL: 9 (Killed)
===================================================================================

===================================================================================
=   BAD TERMINATION OF ONE OF YOUR APPLICATION PROCESSES
=   RANK 90 PID 51950 RUNNING AT r229
=   KILLED BY SIGNAL: 9 (Killed)
===================================================================================

===================================================================================
=   BAD TERMINATION OF ONE OF YOUR APPLICATION PROCESSES
=   RANK 91 PID 51951 RUNNING AT r229
=   KILLED BY SIGNAL: 9 (Killed)
===================================================================================

===================================================================================
=   BAD TERMINATION OF ONE OF YOUR APPLICATION PROCESSES
=   RANK 92 PID 51952 RUNNING AT r229
=   KILLED BY SIGNAL: 9 (Killed)
===================================================================================

===================================================================================
=   BAD TERMINATION OF ONE OF YOUR APPLICATION PROCESSES
=   RANK 93 PID 51953 RUNNING AT r229
=   KILLED BY SIGNAL: 9 (Killed)
===================================================================================

===================================================================================
=   BAD TERMINATION OF ONE OF YOUR APPLICATION PROCESSES
=   RANK 94 PID 51954 RUNNING AT r229
=   KILLED BY SIGNAL: 9 (Killed)
===================================================================================

===================================================================================
=   BAD TERMINATION OF ONE OF YOUR APPLICATION PROCESSES
=   RANK 95 PID 51955 RUNNING AT r229
=   KILLED BY SIGNAL: 9 (Killed)
===================================================================================

===================================================================================
=   BAD TERMINATION OF ONE OF YOUR APPLICATION PROCESSES
=   RANK 96 PID 51956 RUNNING AT r229
=   KILLED BY SIGNAL: 9 (Killed)
===================================================================================

===================================================================================
=   BAD TERMINATION OF ONE OF YOUR APPLICATION PROCESSES
=   RANK 97 PID 51957 RUNNING AT r229
=   KILLED BY SIGNAL: 9 (Killed)
===================================================================================

===================================================================================
=   BAD TERMINATION OF ONE OF YOUR APPLICATION PROCESSES
=   RANK 98 PID 51958 RUNNING AT r229
=   KILLED BY SIGNAL: 9 (Killed)
===================================================================================

===================================================================================
=   BAD TERMINATION OF ONE OF YOUR APPLICATION PROCESSES
=   RANK 99 PID 51959 RUNNING AT r229
=   KILLED BY SIGNAL: 9 (Killed)
===================================================================================

===================================================================================
=   BAD TERMINATION OF ONE OF YOUR APPLICATION PROCESSES
=   RANK 100 PID 51960 RUNNING AT r229
=   KILLED BY SIGNAL: 9 (Killed)
===================================================================================

===================================================================================
=   BAD TERMINATION OF ONE OF YOUR APPLICATION PROCESSES
=   RANK 101 PID 51961 RUNNING AT r229
=   KILLED BY SIGNAL: 9 (Killed)
===================================================================================

===================================================================================
=   BAD TERMINATION OF ONE OF YOUR APPLICATION PROCESSES
=   RANK 102 PID 51962 RUNNING AT r229
=   KILLED BY SIGNAL: 9 (Killed)
===================================================================================

===================================================================================
=   BAD TERMINATION OF ONE OF YOUR APPLICATION PROCESSES
=   RANK 103 PID 51963 RUNNING AT r229
=   KILLED BY SIGNAL: 9 (Killed)
===================================================================================

===================================================================================
=   BAD TERMINATION OF ONE OF YOUR APPLICATION PROCESSES
=   RANK 104 PID 51964 RUNNING AT r229
=   KILLED BY SIGNAL: 9 (Killed)
===================================================================================

===================================================================================
=   BAD TERMINATION OF ONE OF YOUR APPLICATION PROCESSES
=   RANK 105 PID 51965 RUNNING AT r229
=   KILLED BY SIGNAL: 9 (Killed)
===================================================================================

===================================================================================
=   BAD TERMINATION OF ONE OF YOUR APPLICATION PROCESSES
=   RANK 106 PID 51966 RUNNING AT r229
=   KILLED BY SIGNAL: 9 (Killed)
===================================================================================

===================================================================================
=   BAD TERMINATION OF ONE OF YOUR APPLICATION PROCESSES
=   RANK 107 PID 51967 RUNNING AT r229
=   KILLED BY SIGNAL: 9 (Killed)
===================================================================================

===================================================================================
=   BAD TERMINATION OF ONE OF YOUR APPLICATION PROCESSES
=   RANK 108 PID 51968 RUNNING AT r229
=   KILLED BY SIGNAL: 9 (Killed)
===================================================================================

===================================================================================
=   BAD TERMINATION OF ONE OF YOUR APPLICATION PROCESSES
=   RANK 109 PID 51969 RUNNING AT r229
=   KILLED BY SIGNAL: 9 (Killed)
===================================================================================

===================================================================================
=   BAD TERMINATION OF ONE OF YOUR APPLICATION PROCESSES
=   RANK 110 PID 51970 RUNNING AT r229
=   KILLED BY SIGNAL: 9 (Killed)
===================================================================================

===================================================================================
=   BAD TERMINATION OF ONE OF YOUR APPLICATION PROCESSES
=   RANK 111 PID 51971 RUNNING AT r229
=   KILLED BY SIGNAL: 9 (Killed)
===================================================================================

===================================================================================
=   BAD TERMINATION OF ONE OF YOUR APPLICATION PROCESSES
=   RANK 112 PID 51972 RUNNING AT r229
=   KILLED BY SIGNAL: 9 (Killed)
===================================================================================

===================================================================================
=   BAD TERMINATION OF ONE OF YOUR APPLICATION PROCESSES
=   RANK 113 PID 51973 RUNNING AT r229
=   KILLED BY SIGNAL: 9 (Killed)
===================================================================================

===================================================================================
=   BAD TERMINATION OF ONE OF YOUR APPLICATION PROCESSES
=   RANK 114 PID 51974 RUNNING AT r229
=   KILLED BY SIGNAL: 9 (Killed)
===================================================================================

===================================================================================
=   BAD TERMINATION OF ONE OF YOUR APPLICATION PROCESSES
=   RANK 115 PID 51975 RUNNING AT r229
=   KILLED BY SIGNAL: 9 (Killed)
===================================================================================

===================================================================================
=   BAD TERMINATION OF ONE OF YOUR APPLICATION PROCESSES
=   RANK 116 PID 51976 RUNNING AT r229
=   KILLED BY SIGNAL: 9 (Killed)
===================================================================================

===================================================================================
=   BAD TERMINATION OF ONE OF YOUR APPLICATION PROCESSES
=   RANK 117 PID 51977 RUNNING AT r229
=   KILLED BY SIGNAL: 9 (Killed)
===================================================================================

===================================================================================
=   BAD TERMINATION OF ONE OF YOUR APPLICATION PROCESSES
=   RANK 118 PID 51978 RUNNING AT r229
=   KILLED BY SIGNAL: 9 (Killed)
===================================================================================

===================================================================================
=   BAD TERMINATION OF ONE OF YOUR APPLICATION PROCESSES
=   RANK 119 PID 51979 RUNNING AT r229
=   KILLED BY SIGNAL: 9 (Killed)
===================================================================================

===================================================================================
=   BAD TERMINATION OF ONE OF YOUR APPLICATION PROCESSES
=   RANK 120 PID 51980 RUNNING AT r229
=   KILLED BY SIGNAL: 9 (Killed)
===================================================================================

===================================================================================
=   BAD TERMINATION OF ONE OF YOUR APPLICATION PROCESSES
=   RANK 121 PID 51981 RUNNING AT r229
=   KILLED BY SIGNAL: 9 (Killed)
===================================================================================

===================================================================================
=   BAD TERMINATION OF ONE OF YOUR APPLICATION PROCESSES
=   RANK 122 PID 51982 RUNNING AT r229
=   KILLED BY SIGNAL: 9 (Killed)
===================================================================================

===================================================================================
=   BAD TERMINATION OF ONE OF YOUR APPLICATION PROCESSES
=   RANK 123 PID 51983 RUNNING AT r229
=   KILLED BY SIGNAL: 9 (Killed)
===================================================================================

===================================================================================
=   BAD TERMINATION OF ONE OF YOUR APPLICATION PROCESSES
=   RANK 124 PID 51984 RUNNING AT r229
=   KILLED BY SIGNAL: 9 (Killed)
===================================================================================

===================================================================================
=   BAD TERMINATION OF ONE OF YOUR APPLICATION PROCESSES
=   RANK 125 PID 51985 RUNNING AT r229
=   KILLED BY SIGNAL: 9 (Killed)
===================================================================================

===================================================================================
=   BAD TERMINATION OF ONE OF YOUR APPLICATION PROCESSES
=   RANK 126 PID 51986 RUNNING AT r229
=   KILLED BY SIGNAL: 9 (Killed)
===================================================================================

===================================================================================
=   BAD TERMINATION OF ONE OF YOUR APPLICATION PROCESSES
=   RANK 127 PID 51987 RUNNING AT r229
=   KILLED BY SIGNAL: 9 (Killed)
===================================================================================
I_MPI_JOB_TIMEOUT = -1 second(s): job ending due to startup timeout
